
     Program PWSCF v.6.4.1 starts on 15Mar2023 at  7: 5:33 

     This program is part of the open-source Quantum ESPRESSO suite
     for quantum simulation of materials; please cite
         "P. Giannozzi et al., J. Phys.:Condens. Matter 21 395502 (2009);
         "P. Giannozzi et al., J. Phys.:Condens. Matter 29 465901 (2017);
          URL http://www.quantum-espresso.org", 
     in publications or presentations arising from this work. More details at
     http://www.quantum-espresso.org/quote

     Parallel version (MPI), running on     1 processors

     MPI processes distributed on     1 nodes
     Waiting for input...
     Reading input from standard input

     Current dimensions of program PWSCF are:
     Max number of different atomic species (ntypx) = 10
     Max number of k-points (npk) =  40000
     Max angular momentum in pseudopotentials (lmaxx) =  3

     Atomic positions and unit cell read from directory:
     ./Si.save/


     Subspace diagonalization in iterative solution of the eigenvalue problem:
     a serial algorithm will be used

     Message from routine setup:
     DEPRECATED: symmetry with ibrav=0, use correct ibrav instead

     G-vector sticks info
     --------------------
     sticks:   dense  smooth     PW     G-vecs:    dense   smooth      PW
     Sum         859     433    163                16889     5985    1363



     bravais-lattice index     =            0
     lattice parameter (alat)  =       7.2594  a.u.
     unit-cell volume          =     270.5148 (a.u.)^3
     number of atoms/cell      =            2
     number of atomic types    =            1
     number of electrons       =         8.00
     number of Kohn-Sham states=           12
     kinetic-energy cutoff     =      30.0000  Ry
     charge density cutoff     =     240.0000  Ry
     Exchange-correlation      = PBESOL ( 1  4 10  8 0 0)

     celldm(1)=   7.259421  celldm(2)=   0.000000  celldm(3)=   0.000000
     celldm(4)=   0.000000  celldm(5)=   0.000000  celldm(6)=   0.000000

     crystal axes: (cart. coord. in units of alat)
               a(1) = (  -0.707107  -0.707107   0.000000 )  
               a(2) = (  -0.707107   0.000000  -0.707107 )  
               a(3) = (   0.000000  -0.707107  -0.707107 )  

     reciprocal axes: (cart. coord. in units 2 pi/alat)
               b(1) = ( -0.707107 -0.707107  0.707107 )  
               b(2) = ( -0.707107  0.707107 -0.707107 )  
               b(3) = (  0.707107 -0.707107 -0.707107 )  


     PseudoPot. # 1 for Si read from file:
     ./Si.pbesol-n-rrkjus_psl.1.0.0.UPF
     MD5 check sum: c4212819de858c94c3a1644338846ac9
     Pseudo is Ultrasoft + core correction, Zval =  4.0
     Generated using "atomic" code by A. Dal Corso v.6.0 svn rev. 13079
     Using radial grid of 1141 points,  6 beta functions with: 
                l(1) =   0
                l(2) =   0
                l(3) =   1
                l(4) =   1
                l(5) =   2
                l(6) =   2
     Q(r) pseudized with 0 coefficients 


     atomic species   valence    mass     pseudopotential
        Si             4.00    28.08550     Si( 1.00)

     48 Sym. Ops., with inversion, found (24 have fractional translation)


                                    s                        frac. trans.

      isym =  1     identity                                     

 cryst.   s( 1) = (     1          0          0      )
                  (     0          1          0      )
                  (     0          0          1      )

 cart.    s( 1) = (  1.0000000  0.0000000  0.0000000 )
                  (  0.0000000  1.0000000  0.0000000 )
                  (  0.0000000  0.0000000  1.0000000 )


      isym =  2     180 deg rotation - cart. axis [0,0,1]        

 cryst.   s( 2) = (    -1          0          0      )
                  (    -1          0          1      )
                  (    -1          1          0      )

 cart.    s( 2) = ( -1.0000000  0.0000000  0.0000000 )
                  (  0.0000000 -1.0000000  0.0000000 )
                  (  0.0000000  0.0000000  1.0000000 )


      isym =  3     180 deg rotation - cart. axis [0,1,0]        

 cryst.   s( 3) = (     0         -1          1      )
                  (     0         -1          0      )
                  (     1         -1          0      )

 cart.    s( 3) = ( -1.0000000  0.0000000  0.0000000 )
                  (  0.0000000  1.0000000  0.0000000 )
                  (  0.0000000  0.0000000 -1.0000000 )


      isym =  4     180 deg rotation - cart. axis [1,0,0]        

 cryst.   s( 4) = (     0          1         -1      )
                  (     1          0         -1      )
                  (     0          0         -1      )

 cart.    s( 4) = (  1.0000000  0.0000000  0.0000000 )
                  (  0.0000000 -1.0000000  0.0000000 )
                  (  0.0000000  0.0000000 -1.0000000 )


      isym =  5     180 deg rotation - cart. axis [1,1,0]        

 cryst.   s( 5) = (     1          0          0      )    f =(  0.2500000 )
                  (     1         -1          0      )       (  0.2500000 )
                  (     1          0         -1      )       (  0.2500000 )

 cart.    s( 5) = (  0.0000000  1.0000000  0.0000000 )    f =( -0.3535534 )
                  (  1.0000000  0.0000000  0.0000000 )       ( -0.3535534 )
                  (  0.0000000  0.0000000 -1.0000000 )       ( -0.3535534 )


      isym =  6     180 deg rotation - cart. axis [1,-1,0]       

 cryst.   s( 6) = (    -1          0          0      )    f =(  0.2500000 )
                  (     0          0         -1      )       (  0.2500000 )
                  (     0         -1          0      )       (  0.2500000 )

 cart.    s( 6) = (  0.0000000 -1.0000000  0.0000000 )    f =( -0.3535534 )
                  ( -1.0000000  0.0000000  0.0000000 )       ( -0.3535534 )
                  (  0.0000000  0.0000000 -1.0000000 )       ( -0.3535534 )


      isym =  7      90 deg rotation - cart. axis [0,0,-1]       

 cryst.   s( 7) = (     0          1         -1      )    f =(  0.2500000 )
                  (    -1          1          0      )       (  0.2500000 )
                  (     0          1          0      )       (  0.2500000 )

 cart.    s( 7) = (  0.0000000  1.0000000  0.0000000 )    f =( -0.3535534 )
                  ( -1.0000000  0.0000000  0.0000000 )       ( -0.3535534 )
                  (  0.0000000  0.0000000  1.0000000 )       ( -0.3535534 )


      isym =  8      90 deg rotation - cart. axis [0,0,1]        

 cryst.   s( 8) = (     0         -1          1      )    f =(  0.2500000 )
                  (     0          0          1      )       (  0.2500000 )
                  (    -1          0          1      )       (  0.2500000 )

 cart.    s( 8) = (  0.0000000 -1.0000000  0.0000000 )    f =( -0.3535534 )
                  (  1.0000000  0.0000000  0.0000000 )       ( -0.3535534 )
                  (  0.0000000  0.0000000  1.0000000 )       ( -0.3535534 )


      isym =  9     180 deg rotation - cart. axis [1,0,1]        

 cryst.   s( 9) = (    -1          1          0      )    f =(  0.2500000 )
                  (     0          1          0      )       (  0.2500000 )
                  (     0          1         -1      )       (  0.2500000 )

 cart.    s( 9) = (  0.0000000  0.0000000  1.0000000 )    f =( -0.3535534 )
                  (  0.0000000 -1.0000000  0.0000000 )       ( -0.3535534 )
                  (  1.0000000  0.0000000  0.0000000 )       ( -0.3535534 )


      isym = 10     180 deg rotation - cart. axis [-1,0,1]       

 cryst.   s(10) = (     0          0         -1      )    f =(  0.2500000 )
                  (     0         -1          0      )       (  0.2500000 )
                  (    -1          0          0      )       (  0.2500000 )

 cart.    s(10) = (  0.0000000  0.0000000 -1.0000000 )    f =( -0.3535534 )
                  (  0.0000000 -1.0000000  0.0000000 )       ( -0.3535534 )
                  ( -1.0000000  0.0000000  0.0000000 )       ( -0.3535534 )


      isym = 11      90 deg rotation - cart. axis [0,1,0]        

 cryst.   s(11) = (     1         -1          0      )    f =(  0.2500000 )
                  (     1          0         -1      )       (  0.2500000 )
                  (     1          0          0      )       (  0.2500000 )

 cart.    s(11) = (  0.0000000  0.0000000  1.0000000 )    f =( -0.3535534 )
                  (  0.0000000  1.0000000  0.0000000 )       ( -0.3535534 )
                  ( -1.0000000  0.0000000  0.0000000 )       ( -0.3535534 )


      isym = 12      90 deg rotation - cart. axis [0,-1,0]       

 cryst.   s(12) = (     0          0          1      )    f =(  0.2500000 )
                  (    -1          0          1      )       (  0.2500000 )
                  (     0         -1          1      )       (  0.2500000 )

 cart.    s(12) = (  0.0000000  0.0000000 -1.0000000 )    f =( -0.3535534 )
                  (  0.0000000  1.0000000  0.0000000 )       ( -0.3535534 )
                  (  1.0000000  0.0000000  0.0000000 )       ( -0.3535534 )


      isym = 13     180 deg rotation - cart. axis [0,1,1]        

 cryst.   s(13) = (    -1          0          1      )    f =(  0.2500000 )
                  (     0         -1          1      )       (  0.2500000 )
                  (     0          0          1      )       (  0.2500000 )

 cart.    s(13) = ( -1.0000000  0.0000000  0.0000000 )    f =( -0.3535534 )
                  (  0.0000000  0.0000000  1.0000000 )       ( -0.3535534 )
                  (  0.0000000  1.0000000  0.0000000 )       ( -0.3535534 )


      isym = 14     180 deg rotation - cart. axis [0,1,-1]       

 cryst.   s(14) = (     0         -1          0      )    f =(  0.2500000 )
                  (    -1          0          0      )       (  0.2500000 )
                  (     0          0         -1      )       (  0.2500000 )

 cart.    s(14) = ( -1.0000000  0.0000000  0.0000000 )    f =( -0.3535534 )
                  (  0.0000000  0.0000000 -1.0000000 )       ( -0.3535534 )
                  (  0.0000000 -1.0000000  0.0000000 )       ( -0.3535534 )


      isym = 15      90 deg rotation - cart. axis [-1,0,0]       

 cryst.   s(15) = (     1          0         -1      )    f =(  0.2500000 )
                  (     1          0          0      )       (  0.2500000 )
                  (     1         -1          0      )       (  0.2500000 )

 cart.    s(15) = (  1.0000000  0.0000000  0.0000000 )    f =( -0.3535534 )
                  (  0.0000000  0.0000000  1.0000000 )       ( -0.3535534 )
                  (  0.0000000 -1.0000000  0.0000000 )       ( -0.3535534 )


      isym = 16      90 deg rotation - cart. axis [1,0,0]        

 cryst.   s(16) = (     0          1          0      )    f =(  0.2500000 )
                  (     0          1         -1      )       (  0.2500000 )
                  (    -1          1          0      )       (  0.2500000 )

 cart.    s(16) = (  1.0000000  0.0000000  0.0000000 )    f =( -0.3535534 )
                  (  0.0000000  0.0000000 -1.0000000 )       ( -0.3535534 )
                  (  0.0000000  1.0000000  0.0000000 )       ( -0.3535534 )


      isym = 17     120 deg rotation - cart. axis [-1,-1,-1]     

 cryst.   s(17) = (     0          1          0      )
                  (     0          0          1      )
                  (     1          0          0      )

 cart.    s(17) = (  0.0000000  1.0000000  0.0000000 )
                  (  0.0000000  0.0000000  1.0000000 )
                  (  1.0000000  0.0000000  0.0000000 )


      isym = 18     120 deg rotation - cart. axis [-1,1,1]       

 cryst.   s(18) = (     0         -1          0      )
                  (     1         -1          0      )
                  (     0         -1          1      )

 cart.    s(18) = (  0.0000000 -1.0000000  0.0000000 )
                  (  0.0000000  0.0000000  1.0000000 )
                  ( -1.0000000  0.0000000  0.0000000 )


      isym = 19     120 deg rotation - cart. axis [1,1,-1]       

 cryst.   s(19) = (     1          0         -1      )
                  (     0          0         -1      )
                  (     0          1         -1      )

 cart.    s(19) = (  0.0000000  1.0000000  0.0000000 )
                  (  0.0000000  0.0000000 -1.0000000 )
                  ( -1.0000000  0.0000000  0.0000000 )


      isym = 20     120 deg rotation - cart. axis [1,-1,1]       

 cryst.   s(20) = (    -1          0          1      )
                  (    -1          1          0      )
                  (    -1          0          0      )

 cart.    s(20) = (  0.0000000 -1.0000000  0.0000000 )
                  (  0.0000000  0.0000000 -1.0000000 )
                  (  1.0000000  0.0000000  0.0000000 )


      isym = 21     120 deg rotation - cart. axis [1,1,1]        

 cryst.   s(21) = (     0          0          1      )
                  (     1          0          0      )
                  (     0          1          0      )

 cart.    s(21) = (  0.0000000  0.0000000  1.0000000 )
                  (  1.0000000  0.0000000  0.0000000 )
                  (  0.0000000  1.0000000  0.0000000 )


      isym = 22     120 deg rotation - cart. axis [-1,1,-1]      

 cryst.   s(22) = (     0          0         -1      )
                  (     0          1         -1      )
                  (     1          0         -1      )

 cart.    s(22) = (  0.0000000  0.0000000  1.0000000 )
                  ( -1.0000000  0.0000000  0.0000000 )
                  (  0.0000000 -1.0000000  0.0000000 )


      isym = 23     120 deg rotation - cart. axis [1,-1,-1]      

 cryst.   s(23) = (    -1          1          0      )
                  (    -1          0          0      )
                  (    -1          0          1      )

 cart.    s(23) = (  0.0000000  0.0000000 -1.0000000 )
                  ( -1.0000000  0.0000000  0.0000000 )
                  (  0.0000000  1.0000000  0.0000000 )


      isym = 24     120 deg rotation - cart. axis [-1,-1,1]      

 cryst.   s(24) = (     1         -1          0      )
                  (     0         -1          1      )
                  (     0         -1          0      )

 cart.    s(24) = (  0.0000000  0.0000000 -1.0000000 )
                  (  1.0000000  0.0000000  0.0000000 )
                  (  0.0000000 -1.0000000  0.0000000 )


      isym = 25     inversion                                    

 cryst.   s(25) = (    -1          0          0      )    f =(  0.2500000 )
                  (     0         -1          0      )       (  0.2500000 )
                  (     0          0         -1      )       (  0.2500000 )

 cart.    s(25) = ( -1.0000000  0.0000000  0.0000000 )    f =( -0.3535534 )
                  (  0.0000000 -1.0000000  0.0000000 )       ( -0.3535534 )
                  (  0.0000000  0.0000000 -1.0000000 )       ( -0.3535534 )


      isym = 26     inv. 180 deg rotation - cart. axis [0,0,1]   

 cryst.   s(26) = (     1          0          0      )    f =(  0.2500000 )
                  (     1          0         -1      )       (  0.2500000 )
                  (     1         -1          0      )       (  0.2500000 )

 cart.    s(26) = (  1.0000000  0.0000000  0.0000000 )    f =( -0.3535534 )
                  (  0.0000000  1.0000000  0.0000000 )       ( -0.3535534 )
                  (  0.0000000  0.0000000 -1.0000000 )       ( -0.3535534 )


      isym = 27     inv. 180 deg rotation - cart. axis [0,1,0]   

 cryst.   s(27) = (     0          1         -1      )    f =(  0.2500000 )
                  (     0          1          0      )       (  0.2500000 )
                  (    -1          1          0      )       (  0.2500000 )

 cart.    s(27) = (  1.0000000  0.0000000  0.0000000 )    f =( -0.3535534 )
                  (  0.0000000 -1.0000000  0.0000000 )       ( -0.3535534 )
                  (  0.0000000  0.0000000  1.0000000 )       ( -0.3535534 )


      isym = 28     inv. 180 deg rotation - cart. axis [1,0,0]   

 cryst.   s(28) = (     0         -1          1      )    f =(  0.2500000 )
                  (    -1          0          1      )       (  0.2500000 )
                  (     0          0          1      )       (  0.2500000 )

 cart.    s(28) = ( -1.0000000  0.0000000  0.0000000 )    f =( -0.3535534 )
                  (  0.0000000  1.0000000  0.0000000 )       ( -0.3535534 )
                  (  0.0000000  0.0000000  1.0000000 )       ( -0.3535534 )


      isym = 29     inv. 180 deg rotation - cart. axis [1,1,0]   

 cryst.   s(29) = (    -1          0          0      )
                  (    -1          1          0      )
                  (    -1          0          1      )

 cart.    s(29) = (  0.0000000 -1.0000000  0.0000000 )
                  ( -1.0000000  0.0000000  0.0000000 )
                  (  0.0000000  0.0000000  1.0000000 )


      isym = 30     inv. 180 deg rotation - cart. axis [1,-1,0]  

 cryst.   s(30) = (     1          0          0      )
                  (     0          0          1      )
                  (     0          1          0      )

 cart.    s(30) = (  0.0000000  1.0000000  0.0000000 )
                  (  1.0000000  0.0000000  0.0000000 )
                  (  0.0000000  0.0000000  1.0000000 )


      isym = 31     inv.  90 deg rotation - cart. axis [0,0,-1]  

 cryst.   s(31) = (     0         -1          1      )
                  (     1         -1          0      )
                  (     0         -1          0      )

 cart.    s(31) = (  0.0000000 -1.0000000  0.0000000 )
                  (  1.0000000  0.0000000  0.0000000 )
                  (  0.0000000  0.0000000 -1.0000000 )


      isym = 32     inv.  90 deg rotation - cart. axis [0,0,1]   

 cryst.   s(32) = (     0          1         -1      )
                  (     0          0         -1      )
                  (     1          0         -1      )

 cart.    s(32) = (  0.0000000  1.0000000  0.0000000 )
                  ( -1.0000000  0.0000000  0.0000000 )
                  (  0.0000000  0.0000000 -1.0000000 )


      isym = 33     inv. 180 deg rotation - cart. axis [1,0,1]   

 cryst.   s(33) = (     1         -1          0      )
                  (     0         -1          0      )
                  (     0         -1          1      )

 cart.    s(33) = (  0.0000000  0.0000000 -1.0000000 )
                  (  0.0000000  1.0000000  0.0000000 )
                  ( -1.0000000  0.0000000  0.0000000 )


      isym = 34     inv. 180 deg rotation - cart. axis [-1,0,1]  

 cryst.   s(34) = (     0          0          1      )
                  (     0          1          0      )
                  (     1          0          0      )

 cart.    s(34) = (  0.0000000  0.0000000  1.0000000 )
                  (  0.0000000  1.0000000  0.0000000 )
                  (  1.0000000  0.0000000  0.0000000 )


      isym = 35     inv.  90 deg rotation - cart. axis [0,1,0]   

 cryst.   s(35) = (    -1          1          0      )
                  (    -1          0          1      )
                  (    -1          0          0      )

 cart.    s(35) = (  0.0000000  0.0000000 -1.0000000 )
                  (  0.0000000 -1.0000000  0.0000000 )
                  (  1.0000000  0.0000000  0.0000000 )


      isym = 36     inv.  90 deg rotation - cart. axis [0,-1,0]  

 cryst.   s(36) = (     0          0         -1      )
                  (     1          0         -1      )
                  (     0          1         -1      )

 cart.    s(36) = (  0.0000000  0.0000000  1.0000000 )
                  (  0.0000000 -1.0000000  0.0000000 )
                  ( -1.0000000  0.0000000  0.0000000 )


      isym = 37     inv. 180 deg rotation - cart. axis [0,1,1]   

 cryst.   s(37) = (     1          0         -1      )
                  (     0          1         -1      )
                  (     0          0         -1      )

 cart.    s(37) = (  1.0000000  0.0000000  0.0000000 )
                  (  0.0000000  0.0000000 -1.0000000 )
                  (  0.0000000 -1.0000000  0.0000000 )


      isym = 38     inv. 180 deg rotation - cart. axis [0,1,-1]  

 cryst.   s(38) = (     0          1          0      )
                  (     1          0          0      )
                  (     0          0          1      )

 cart.    s(38) = (  1.0000000  0.0000000  0.0000000 )
                  (  0.0000000  0.0000000  1.0000000 )
                  (  0.0000000  1.0000000  0.0000000 )


      isym = 39     inv.  90 deg rotation - cart. axis [-1,0,0]  

 cryst.   s(39) = (    -1          0          1      )
                  (    -1          0          0      )
                  (    -1          1          0      )

 cart.    s(39) = ( -1.0000000  0.0000000  0.0000000 )
                  (  0.0000000  0.0000000 -1.0000000 )
                  (  0.0000000  1.0000000  0.0000000 )


      isym = 40     inv.  90 deg rotation - cart. axis [1,0,0]   

 cryst.   s(40) = (     0         -1          0      )
                  (     0         -1          1      )
                  (     1         -1          0      )

 cart.    s(40) = ( -1.0000000  0.0000000  0.0000000 )
                  (  0.0000000  0.0000000  1.0000000 )
                  (  0.0000000 -1.0000000  0.0000000 )


      isym = 41     inv. 120 deg rotation - cart. axis [-1,-1,-1]

 cryst.   s(41) = (     0         -1          0      )    f =(  0.2500000 )
                  (     0          0         -1      )       (  0.2500000 )
                  (    -1          0          0      )       (  0.2500000 )

 cart.    s(41) = (  0.0000000 -1.0000000  0.0000000 )    f =( -0.3535534 )
                  (  0.0000000  0.0000000 -1.0000000 )       ( -0.3535534 )
                  ( -1.0000000  0.0000000  0.0000000 )       ( -0.3535534 )


      isym = 42     inv. 120 deg rotation - cart. axis [-1,1,1]  

 cryst.   s(42) = (     0          1          0      )    f =(  0.2500000 )
                  (    -1          1          0      )       (  0.2500000 )
                  (     0          1         -1      )       (  0.2500000 )

 cart.    s(42) = (  0.0000000  1.0000000  0.0000000 )    f =( -0.3535534 )
                  (  0.0000000  0.0000000 -1.0000000 )       ( -0.3535534 )
                  (  1.0000000  0.0000000  0.0000000 )       ( -0.3535534 )


      isym = 43     inv. 120 deg rotation - cart. axis [1,1,-1]  

 cryst.   s(43) = (    -1          0          1      )    f =(  0.2500000 )
                  (     0          0          1      )       (  0.2500000 )
                  (     0         -1          1      )       (  0.2500000 )

 cart.    s(43) = (  0.0000000 -1.0000000  0.0000000 )    f =( -0.3535534 )
                  (  0.0000000  0.0000000  1.0000000 )       ( -0.3535534 )
                  (  1.0000000  0.0000000  0.0000000 )       ( -0.3535534 )


      isym = 44     inv. 120 deg rotation - cart. axis [1,-1,1]  

 cryst.   s(44) = (     1          0         -1      )    f =(  0.2500000 )
                  (     1         -1          0      )       (  0.2500000 )
                  (     1          0          0      )       (  0.2500000 )

 cart.    s(44) = (  0.0000000  1.0000000  0.0000000 )    f =( -0.3535534 )
                  (  0.0000000  0.0000000  1.0000000 )       ( -0.3535534 )
                  ( -1.0000000  0.0000000  0.0000000 )       ( -0.3535534 )


      isym = 45     inv. 120 deg rotation - cart. axis [1,1,1]   

 cryst.   s(45) = (     0          0         -1      )    f =(  0.2500000 )
                  (    -1          0          0      )       (  0.2500000 )
                  (     0         -1          0      )       (  0.2500000 )

 cart.    s(45) = (  0.0000000  0.0000000 -1.0000000 )    f =( -0.3535534 )
                  ( -1.0000000  0.0000000  0.0000000 )       ( -0.3535534 )
                  (  0.0000000 -1.0000000  0.0000000 )       ( -0.3535534 )


      isym = 46     inv. 120 deg rotation - cart. axis [-1,1,-1] 

 cryst.   s(46) = (     0          0          1      )    f =(  0.2500000 )
                  (     0         -1          1      )       (  0.2500000 )
                  (    -1          0          1      )       (  0.2500000 )

 cart.    s(46) = (  0.0000000  0.0000000 -1.0000000 )    f =( -0.3535534 )
                  (  1.0000000  0.0000000  0.0000000 )       ( -0.3535534 )
                  (  0.0000000  1.0000000  0.0000000 )       ( -0.3535534 )


      isym = 47     inv. 120 deg rotation - cart. axis [1,-1,-1] 

 cryst.   s(47) = (     1         -1          0      )    f =(  0.2500000 )
                  (     1          0          0      )       (  0.2500000 )
                  (     1          0         -1      )       (  0.2500000 )

 cart.    s(47) = (  0.0000000  0.0000000  1.0000000 )    f =( -0.3535534 )
                  (  1.0000000  0.0000000  0.0000000 )       ( -0.3535534 )
                  (  0.0000000 -1.0000000  0.0000000 )       ( -0.3535534 )


      isym = 48     inv. 120 deg rotation - cart. axis [-1,-1,1] 

 cryst.   s(48) = (    -1          1          0      )    f =(  0.2500000 )
                  (     0          1         -1      )       (  0.2500000 )
                  (     0          1          0      )       (  0.2500000 )

 cart.    s(48) = (  0.0000000  0.0000000  1.0000000 )    f =( -0.3535534 )
                  ( -1.0000000  0.0000000  0.0000000 )       ( -0.3535534 )
                  (  0.0000000  1.0000000  0.0000000 )       ( -0.3535534 )


   Cartesian axes

     site n.     atom                  positions (alat units)
         1           Si  tau(   1) = (  -1.0606602  -1.0606602  -1.0606602  )
         2           Si  tau(   2) = (   0.0000000   0.0000000   0.0000000  )

   Crystallographic axes

     site n.     atom                  positions (cryst. coord.)
         1           Si  tau(   1) = (  0.7500000  0.7500000  0.7500000  )
         2           Si  tau(   2) = (  0.0000000  0.0000000  0.0000000  )

     number of k points=   101  Marzari-Vanderbilt smearing, width (Ry)=  0.0147
                       cart. coord. in units 2pi/alat
        k(    1) = (  -1.2242264   0.4080755  -0.4080755), wk =   0.0198020
        k(    2) = (  -1.1630151   0.3876717  -0.3876717), wk =   0.0198020
        k(    3) = (  -1.1018038   0.3672679  -0.3672679), wk =   0.0198020
        k(    4) = (  -1.0405925   0.3468642  -0.3468642), wk =   0.0198020
        k(    5) = (  -0.9793812   0.3264604  -0.3264604), wk =   0.0198020
        k(    6) = (  -0.9181698   0.3060566  -0.3060566), wk =   0.0198020
        k(    7) = (  -0.8569585   0.2856528  -0.2856528), wk =   0.0198020
        k(    8) = (  -0.7957472   0.2652491  -0.2652491), wk =   0.0198020
        k(    9) = (  -0.7345359   0.2448453  -0.2448453), wk =   0.0198020
        k(   10) = (  -0.6733245   0.2244415  -0.2244415), wk =   0.0198020
        k(   11) = (  -0.6121132   0.2040377  -0.2040377), wk =   0.0198020
        k(   12) = (  -0.5509019   0.1836340  -0.1836340), wk =   0.0198020
        k(   13) = (  -0.4896906   0.1632302  -0.1632302), wk =   0.0198020
        k(   14) = (  -0.4284793   0.1428264  -0.1428264), wk =   0.0198020
        k(   15) = (  -0.3672679   0.1224226  -0.1224226), wk =   0.0198020
        k(   16) = (  -0.3060566   0.1020189  -0.1020189), wk =   0.0198020
        k(   17) = (  -0.2448453   0.0816151  -0.0816151), wk =   0.0198020
        k(   18) = (  -0.1836340   0.0612113  -0.0612113), wk =   0.0198020
        k(   19) = (  -0.1224226   0.0408075  -0.0408075), wk =   0.0198020
        k(   20) = (  -0.0612113   0.0204038  -0.0204038), wk =   0.0198020
        k(   21) = (   0.0000000   0.0000000   0.0000000), wk =   0.0198020
        k(   22) = (  -0.0408075   0.0408075  -0.0408075), wk =   0.0198020
        k(   23) = (  -0.0816151   0.0816151  -0.0816151), wk =   0.0198020
        k(   24) = (  -0.1224226   0.1224226  -0.1224226), wk =   0.0198020
        k(   25) = (  -0.1632302   0.1632302  -0.1632302), wk =   0.0198020
        k(   26) = (  -0.2040377   0.2040377  -0.2040377), wk =   0.0198020
        k(   27) = (  -0.2448453   0.2448453  -0.2448453), wk =   0.0198020
        k(   28) = (  -0.2856528   0.2856528  -0.2856528), wk =   0.0198020
        k(   29) = (  -0.3264604   0.3264604  -0.3264604), wk =   0.0198020
        k(   30) = (  -0.3672679   0.3672679  -0.3672679), wk =   0.0198020
        k(   31) = (  -0.4080755   0.4080755  -0.4080755), wk =   0.0198020
        k(   32) = (  -0.4488830   0.4488830  -0.4488830), wk =   0.0198020
        k(   33) = (  -0.4896906   0.4896906  -0.4896906), wk =   0.0198020
        k(   34) = (  -0.5304981   0.5304981  -0.5304981), wk =   0.0198020
        k(   35) = (  -0.5713057   0.5713057  -0.5713057), wk =   0.0198020
        k(   36) = (  -0.6121132   0.6121132  -0.6121132), wk =   0.0198020
        k(   37) = (  -0.6529208   0.6529208  -0.6529208), wk =   0.0198020
        k(   38) = (  -0.6937283   0.6937283  -0.6937283), wk =   0.0198020
        k(   39) = (  -0.7345359   0.7345359  -0.7345359), wk =   0.0198020
        k(   40) = (  -0.7753434   0.7753434  -0.7753434), wk =   0.0198020
        k(   41) = (  -0.8161510   0.8161510  -0.8161510), wk =   0.0198020
        k(   42) = (  -0.8365547   0.7957472  -0.7957472), wk =   0.0198020
        k(   43) = (  -0.8569585   0.7753434  -0.7753434), wk =   0.0198020
        k(   44) = (  -0.8773623   0.7549396  -0.7549396), wk =   0.0198020
        k(   45) = (  -0.8977661   0.7345359  -0.7345359), wk =   0.0198020
        k(   46) = (  -0.9181698   0.7141321  -0.7141321), wk =   0.0198020
        k(   47) = (  -0.9385736   0.6937283  -0.6937283), wk =   0.0198020
        k(   48) = (  -0.9589774   0.6733245  -0.6733245), wk =   0.0198020
        k(   49) = (  -0.9793812   0.6529208  -0.6529208), wk =   0.0198020
        k(   50) = (  -0.9997849   0.6325170  -0.6325170), wk =   0.0198020
        k(   51) = (  -1.0201887   0.6121132  -0.6121132), wk =   0.0198020
        k(   52) = (  -1.0405925   0.5917094  -0.5917094), wk =   0.0198020
        k(   53) = (  -1.0609963   0.5713057  -0.5713057), wk =   0.0198020
        k(   54) = (  -1.0814000   0.5509019  -0.5509019), wk =   0.0198020
        k(   55) = (  -1.1018038   0.5304981  -0.5304981), wk =   0.0198020
        k(   56) = (  -1.1222076   0.5100944  -0.5100944), wk =   0.0198020
        k(   57) = (  -1.1426113   0.4896906  -0.4896906), wk =   0.0198020
        k(   58) = (  -1.1630151   0.4692868  -0.4692868), wk =   0.0198020
        k(   59) = (  -1.1834189   0.4488830  -0.4488830), wk =   0.0198020
        k(   60) = (  -1.2038227   0.4284793  -0.4284793), wk =   0.0198020
        k(   61) = (  -1.2242264   0.4080755  -0.4080755), wk =   0.0198020
        k(   62) = (  -1.1834189   0.3672679  -0.4080755), wk =   0.0198020
        k(   63) = (  -1.1426113   0.3264604  -0.4080755), wk =   0.0198020
        k(   64) = (  -1.1018038   0.2856528  -0.4080755), wk =   0.0198020
        k(   65) = (  -1.0609963   0.2448453  -0.4080755), wk =   0.0198020
        k(   66) = (  -1.0201887   0.2040377  -0.4080755), wk =   0.0198020
        k(   67) = (  -0.9793812   0.1632302  -0.4080755), wk =   0.0198020
        k(   68) = (  -0.9385736   0.1224226  -0.4080755), wk =   0.0198020
        k(   69) = (  -0.8977661   0.0816151  -0.4080755), wk =   0.0198020
        k(   70) = (  -0.8569585   0.0408075  -0.4080755), wk =   0.0198020
        k(   71) = (  -0.8161510  -0.0000000  -0.4080755), wk =   0.0198020
        k(   72) = (  -0.7753434  -0.0408075  -0.4080755), wk =   0.0198020
        k(   73) = (  -0.7345359  -0.0816151  -0.4080755), wk =   0.0198020
        k(   74) = (  -0.6937283  -0.1224226  -0.4080755), wk =   0.0198020
        k(   75) = (  -0.6529208  -0.1632302  -0.4080755), wk =   0.0198020
        k(   76) = (  -0.6121132  -0.2040377  -0.4080755), wk =   0.0198020
        k(   77) = (  -0.5713057  -0.2448453  -0.4080755), wk =   0.0198020
        k(   78) = (  -0.5304981  -0.2856528  -0.4080755), wk =   0.0198020
        k(   79) = (  -0.4896906  -0.3264604  -0.4080755), wk =   0.0198020
        k(   80) = (  -0.4488830  -0.3672679  -0.4080755), wk =   0.0198020
        k(   81) = (  -0.4080755  -0.4080755  -0.4080755), wk =   0.0198020
        k(   82) = (  -0.3876717  -0.3876717  -0.3876717), wk =   0.0198020
        k(   83) = (  -0.3672679  -0.3672679  -0.3672679), wk =   0.0198020
        k(   84) = (  -0.3468642  -0.3468642  -0.3468642), wk =   0.0198020
        k(   85) = (  -0.3264604  -0.3264604  -0.3264604), wk =   0.0198020
        k(   86) = (  -0.3060566  -0.3060566  -0.3060566), wk =   0.0198020
        k(   87) = (  -0.2856528  -0.2856528  -0.2856528), wk =   0.0198020
        k(   88) = (  -0.2652491  -0.2652491  -0.2652491), wk =   0.0198020
        k(   89) = (  -0.2448453  -0.2448453  -0.2448453), wk =   0.0198020
        k(   90) = (  -0.2244415  -0.2244415  -0.2244415), wk =   0.0198020
        k(   91) = (  -0.2040377  -0.2040377  -0.2040377), wk =   0.0198020
        k(   92) = (  -0.1836340  -0.1836340  -0.1836340), wk =   0.0198020
        k(   93) = (  -0.1632302  -0.1632302  -0.1632302), wk =   0.0198020
        k(   94) = (  -0.1428264  -0.1428264  -0.1428264), wk =   0.0198020
        k(   95) = (  -0.1224226  -0.1224226  -0.1224226), wk =   0.0198020
        k(   96) = (  -0.1020189  -0.1020189  -0.1020189), wk =   0.0198020
        k(   97) = (  -0.0816151  -0.0816151  -0.0816151), wk =   0.0198020
        k(   98) = (  -0.0612113  -0.0612113  -0.0612113), wk =   0.0198020
        k(   99) = (  -0.0408075  -0.0408075  -0.0408075), wk =   0.0198020
        k(  100) = (  -0.0204038  -0.0204038  -0.0204038), wk =   0.0198020
        k(  101) = (   0.0000000   0.0000000   0.0000000), wk =   0.0198020

                       cryst. coord.
        k(    1) = (   0.5771059   1.1542118   0.0000000), wk =   0.0198020
        k(    2) = (   0.5482506   1.0965012   0.0000000), wk =   0.0198020
        k(    3) = (   0.5193953   1.0387906   0.0000000), wk =   0.0198020
        k(    4) = (   0.4905400   0.9810800   0.0000000), wk =   0.0198020
        k(    5) = (   0.4616847   0.9233694   0.0000000), wk =   0.0198020
        k(    6) = (   0.4328294   0.8656588   0.0000000), wk =   0.0198020
        k(    7) = (   0.4039741   0.8079482   0.0000000), wk =   0.0198020
        k(    8) = (   0.3751188   0.7502376   0.0000000), wk =   0.0198020
        k(    9) = (   0.3462635   0.6925271   0.0000000), wk =   0.0198020
        k(   10) = (   0.3174082   0.6348165   0.0000000), wk =   0.0198020
        k(   11) = (   0.2885529   0.5771059   0.0000000), wk =   0.0198020
        k(   12) = (   0.2596976   0.5193953   0.0000000), wk =   0.0198020
        k(   13) = (   0.2308424   0.4616847   0.0000000), wk =   0.0198020
        k(   14) = (   0.2019871   0.4039741   0.0000000), wk =   0.0198020
        k(   15) = (   0.1731318   0.3462635   0.0000000), wk =   0.0198020
        k(   16) = (   0.1442765   0.2885529   0.0000000), wk =   0.0198020
        k(   17) = (   0.1154212   0.2308424   0.0000000), wk =   0.0198020
        k(   18) = (   0.0865659   0.1731318   0.0000000), wk =   0.0198020
        k(   19) = (   0.0577106   0.1154212   0.0000000), wk =   0.0198020
        k(   20) = (   0.0288553   0.0577106   0.0000000), wk =   0.0198020
        k(   21) = (   0.0000000   0.0000000   0.0000000), wk =   0.0198020
        k(   22) = (   0.0000000   0.0577106   0.0000000), wk =   0.0198020
        k(   23) = (   0.0000000   0.1154212   0.0000000), wk =   0.0198020
        k(   24) = (   0.0000000   0.1731318   0.0000000), wk =   0.0198020
        k(   25) = (   0.0000000   0.2308424   0.0000000), wk =   0.0198020
        k(   26) = (   0.0000000   0.2885529   0.0000000), wk =   0.0198020
        k(   27) = (   0.0000000   0.3462635   0.0000000), wk =   0.0198020
        k(   28) = (   0.0000000   0.4039741   0.0000000), wk =   0.0198020
        k(   29) = (   0.0000000   0.4616847   0.0000000), wk =   0.0198020
        k(   30) = (   0.0000000   0.5193953   0.0000000), wk =   0.0198020
        k(   31) = (   0.0000000   0.5771059   0.0000000), wk =   0.0198020
        k(   32) = (   0.0000000   0.6348165   0.0000000), wk =   0.0198020
        k(   33) = (   0.0000000   0.6925271   0.0000000), wk =   0.0198020
        k(   34) = (   0.0000000   0.7502376   0.0000000), wk =   0.0198020
        k(   35) = (   0.0000000   0.8079482   0.0000000), wk =   0.0198020
        k(   36) = (   0.0000000   0.8656588   0.0000000), wk =   0.0198020
        k(   37) = (   0.0000000   0.9233694   0.0000000), wk =   0.0198020
        k(   38) = (   0.0000000   0.9810800   0.0000000), wk =   0.0198020
        k(   39) = (   0.0000000   1.0387906   0.0000000), wk =   0.0198020
        k(   40) = (   0.0000000   1.0965012   0.0000000), wk =   0.0198020
        k(   41) = (   0.0000000   1.1542118   0.0000000), wk =   0.0198020
        k(   42) = (   0.0288553   1.1542118   0.0000000), wk =   0.0198020
        k(   43) = (   0.0577106   1.1542118   0.0000000), wk =   0.0198020
        k(   44) = (   0.0865659   1.1542118   0.0000000), wk =   0.0198020
        k(   45) = (   0.1154212   1.1542118   0.0000000), wk =   0.0198020
        k(   46) = (   0.1442765   1.1542118   0.0000000), wk =   0.0198020
        k(   47) = (   0.1731318   1.1542118   0.0000000), wk =   0.0198020
        k(   48) = (   0.2019871   1.1542118   0.0000000), wk =   0.0198020
        k(   49) = (   0.2308424   1.1542118   0.0000000), wk =   0.0198020
        k(   50) = (   0.2596976   1.1542118   0.0000000), wk =   0.0198020
        k(   51) = (   0.2885529   1.1542118   0.0000000), wk =   0.0198020
        k(   52) = (   0.3174082   1.1542118   0.0000000), wk =   0.0198020
        k(   53) = (   0.3462635   1.1542118   0.0000000), wk =   0.0198020
        k(   54) = (   0.3751188   1.1542118   0.0000000), wk =   0.0198020
        k(   55) = (   0.4039741   1.1542118   0.0000000), wk =   0.0198020
        k(   56) = (   0.4328294   1.1542118   0.0000000), wk =   0.0198020
        k(   57) = (   0.4616847   1.1542118   0.0000000), wk =   0.0198020
        k(   58) = (   0.4905400   1.1542118   0.0000000), wk =   0.0198020
        k(   59) = (   0.5193953   1.1542118   0.0000000), wk =   0.0198020
        k(   60) = (   0.5482506   1.1542118   0.0000000), wk =   0.0198020
        k(   61) = (   0.5771059   1.1542118   0.0000000), wk =   0.0198020
        k(   62) = (   0.5771059   1.1253565   0.0288553), wk =   0.0198020
        k(   63) = (   0.5771059   1.0965012   0.0577106), wk =   0.0198020
        k(   64) = (   0.5771059   1.0676459   0.0865659), wk =   0.0198020
        k(   65) = (   0.5771059   1.0387906   0.1154212), wk =   0.0198020
        k(   66) = (   0.5771059   1.0099353   0.1442765), wk =   0.0198020
        k(   67) = (   0.5771059   0.9810800   0.1731318), wk =   0.0198020
        k(   68) = (   0.5771059   0.9522247   0.2019871), wk =   0.0198020
        k(   69) = (   0.5771059   0.9233694   0.2308424), wk =   0.0198020
        k(   70) = (   0.5771059   0.8945141   0.2596976), wk =   0.0198020
        k(   71) = (   0.5771059   0.8656588   0.2885529), wk =   0.0198020
        k(   72) = (   0.5771059   0.8368035   0.3174082), wk =   0.0198020
        k(   73) = (   0.5771059   0.8079482   0.3462635), wk =   0.0198020
        k(   74) = (   0.5771059   0.7790929   0.3751188), wk =   0.0198020
        k(   75) = (   0.5771059   0.7502376   0.4039741), wk =   0.0198020
        k(   76) = (   0.5771059   0.7213824   0.4328294), wk =   0.0198020
        k(   77) = (   0.5771059   0.6925271   0.4616847), wk =   0.0198020
        k(   78) = (   0.5771059   0.6636718   0.4905400), wk =   0.0198020
        k(   79) = (   0.5771059   0.6348165   0.5193953), wk =   0.0198020
        k(   80) = (   0.5771059   0.6059612   0.5482506), wk =   0.0198020
        k(   81) = (   0.5771059   0.5771059   0.5771059), wk =   0.0198020
        k(   82) = (   0.5482506   0.5482506   0.5482506), wk =   0.0198020
        k(   83) = (   0.5193953   0.5193953   0.5193953), wk =   0.0198020
        k(   84) = (   0.4905400   0.4905400   0.4905400), wk =   0.0198020
        k(   85) = (   0.4616847   0.4616847   0.4616847), wk =   0.0198020
        k(   86) = (   0.4328294   0.4328294   0.4328294), wk =   0.0198020
        k(   87) = (   0.4039741   0.4039741   0.4039741), wk =   0.0198020
        k(   88) = (   0.3751188   0.3751188   0.3751188), wk =   0.0198020
        k(   89) = (   0.3462635   0.3462635   0.3462635), wk =   0.0198020
        k(   90) = (   0.3174082   0.3174082   0.3174082), wk =   0.0198020
        k(   91) = (   0.2885529   0.2885529   0.2885529), wk =   0.0198020
        k(   92) = (   0.2596976   0.2596976   0.2596976), wk =   0.0198020
        k(   93) = (   0.2308424   0.2308424   0.2308424), wk =   0.0198020
        k(   94) = (   0.2019871   0.2019871   0.2019871), wk =   0.0198020
        k(   95) = (   0.1731318   0.1731318   0.1731318), wk =   0.0198020
        k(   96) = (   0.1442765   0.1442765   0.1442765), wk =   0.0198020
        k(   97) = (   0.1154212   0.1154212   0.1154212), wk =   0.0198020
        k(   98) = (   0.0865659   0.0865659   0.0865659), wk =   0.0198020
        k(   99) = (   0.0577106   0.0577106   0.0577106), wk =   0.0198020
        k(  100) = (   0.0288553   0.0288553   0.0288553), wk =   0.0198020
        k(  101) = (   0.0000000   0.0000000   0.0000000), wk =   0.0198020

     Dense  grid:    16889 G-vectors     FFT dimensions: (  36,  36,  36)

     Smooth grid:     5985 G-vectors     FFT dimensions: (  32,  32,  32)

     Dynamical RAM for                 wfc:       0.14 MB

     Dynamical RAM for     wfc (w. buffer):       0.14 MB

     Dynamical RAM for           str. fact:       0.26 MB

     Dynamical RAM for           local pot:       0.00 MB

     Dynamical RAM for          nlocal pot:       0.41 MB

     Dynamical RAM for                qrad:       1.44 MB

     Dynamical RAM for          rho,v,vnew:       1.84 MB

     Dynamical RAM for           G-vectors:       1.01 MB

     Dynamical RAM for          h,s,v(r/c):       0.11 MB

     Dynamical RAM for          <psi|beta>:       0.01 MB

     Dynamical RAM for                 psi:       0.55 MB

     Dynamical RAM for                hpsi:       0.55 MB

     Dynamical RAM for                spsi:       0.55 MB

     Dynamical RAM for      wfcinit/wfcrot:       0.28 MB

     Dynamical RAM for           addusdens:      48.45 MB

     Estimated static dynamical RAM per process >       7.39 MB

     Estimated max dynamical RAM per process >      55.84 MB

     The potential is recalculated from file :
     ./Si.save/charge-density

     Starting wfcs are    8 randomized atomic wfcs +    4 random wfcs

     Band Structure Calculation
     Davidson diagonalization with overlap

     Computing kpt #:     1
     total cpu time spent up to now is        1.6 secs

     Computing kpt #:     2
     total cpu time spent up to now is        1.8 secs

     Computing kpt #:     3
     total cpu time spent up to now is        2.0 secs

     Computing kpt #:     4
     total cpu time spent up to now is        2.1 secs

     Computing kpt #:     5
     total cpu time spent up to now is        2.3 secs

     Computing kpt #:     6
     total cpu time spent up to now is        2.4 secs

     Computing kpt #:     7
     total cpu time spent up to now is        2.6 secs

     Computing kpt #:     8
     total cpu time spent up to now is        2.7 secs

     Computing kpt #:     9
     total cpu time spent up to now is        2.9 secs

     Computing kpt #:    10
     total cpu time spent up to now is        3.0 secs

     Computing kpt #:    11
     total cpu time spent up to now is        3.2 secs

     Computing kpt #:    12
     total cpu time spent up to now is        3.3 secs

     Computing kpt #:    13
     total cpu time spent up to now is        3.5 secs

     Computing kpt #:    14
     total cpu time spent up to now is        3.6 secs

     Computing kpt #:    15
     total cpu time spent up to now is        3.8 secs

     Computing kpt #:    16
     total cpu time spent up to now is        3.9 secs

     Computing kpt #:    17
     total cpu time spent up to now is        4.0 secs

     Computing kpt #:    18
     total cpu time spent up to now is        4.2 secs

     Computing kpt #:    19
     total cpu time spent up to now is        4.3 secs

     Computing kpt #:    20
     total cpu time spent up to now is        4.4 secs

     Computing kpt #:    21
     total cpu time spent up to now is        4.5 secs

     Computing kpt #:    22
     total cpu time spent up to now is        4.6 secs

     Computing kpt #:    23
     total cpu time spent up to now is        4.8 secs

     Computing kpt #:    24
     total cpu time spent up to now is        4.9 secs

     Computing kpt #:    25
     total cpu time spent up to now is        5.0 secs

     Computing kpt #:    26
     total cpu time spent up to now is        5.1 secs

     Computing kpt #:    27
     total cpu time spent up to now is        5.2 secs

     Computing kpt #:    28
     total cpu time spent up to now is        5.4 secs

     Computing kpt #:    29
     total cpu time spent up to now is        5.5 secs

     Computing kpt #:    30
     total cpu time spent up to now is        5.6 secs

     Computing kpt #:    31
     total cpu time spent up to now is        5.8 secs

     Computing kpt #:    32
     total cpu time spent up to now is        5.9 secs

     Computing kpt #:    33
     total cpu time spent up to now is        6.0 secs

     Computing kpt #:    34
     total cpu time spent up to now is        6.2 secs

     Computing kpt #:    35
     total cpu time spent up to now is        6.3 secs

     Computing kpt #:    36
     total cpu time spent up to now is        6.4 secs

     Computing kpt #:    37
     total cpu time spent up to now is        6.6 secs

     Computing kpt #:    38
     total cpu time spent up to now is        6.7 secs

     Computing kpt #:    39
     total cpu time spent up to now is        6.8 secs

     Computing kpt #:    40
     total cpu time spent up to now is        7.0 secs

     Computing kpt #:    41
     total cpu time spent up to now is        7.1 secs

     Computing kpt #:    42
     total cpu time spent up to now is        7.2 secs

     Computing kpt #:    43
     total cpu time spent up to now is        7.4 secs

     Computing kpt #:    44
     total cpu time spent up to now is        7.5 secs

     Computing kpt #:    45
     total cpu time spent up to now is        7.7 secs

     Computing kpt #:    46
     total cpu time spent up to now is        7.8 secs

     Computing kpt #:    47
     total cpu time spent up to now is        8.0 secs

     Computing kpt #:    48
     total cpu time spent up to now is        8.2 secs

     Computing kpt #:    49
     total cpu time spent up to now is        8.3 secs

     Computing kpt #:    50
     total cpu time spent up to now is        8.5 secs

     Computing kpt #:    51
     total cpu time spent up to now is        8.6 secs

     Computing kpt #:    52
     total cpu time spent up to now is        8.8 secs

     Computing kpt #:    53
     total cpu time spent up to now is        8.9 secs

     Computing kpt #:    54
     total cpu time spent up to now is        9.1 secs

     Computing kpt #:    55
     total cpu time spent up to now is        9.3 secs

     Computing kpt #:    56
     total cpu time spent up to now is        9.4 secs

     Computing kpt #:    57
     total cpu time spent up to now is        9.6 secs

     Computing kpt #:    58
     total cpu time spent up to now is        9.8 secs

     Computing kpt #:    59
     total cpu time spent up to now is        9.9 secs

     Computing kpt #:    60
     total cpu time spent up to now is       10.1 secs

     Computing kpt #:    61
     total cpu time spent up to now is       10.2 secs

     Computing kpt #:    62
     total cpu time spent up to now is       10.4 secs

     Computing kpt #:    63
     total cpu time spent up to now is       10.6 secs

     Computing kpt #:    64
     total cpu time spent up to now is       10.7 secs

     Computing kpt #:    65
     total cpu time spent up to now is       10.9 secs

     Computing kpt #:    66
     total cpu time spent up to now is       11.1 secs

     Computing kpt #:    67
     total cpu time spent up to now is       11.2 secs

     Computing kpt #:    68
     total cpu time spent up to now is       11.4 secs

     Computing kpt #:    69
     total cpu time spent up to now is       11.5 secs

     Computing kpt #:    70
     total cpu time spent up to now is       11.7 secs

     Computing kpt #:    71
     total cpu time spent up to now is       11.8 secs

     Computing kpt #:    72
     total cpu time spent up to now is       12.0 secs

     Computing kpt #:    73
     total cpu time spent up to now is       12.1 secs

     Computing kpt #:    74
     total cpu time spent up to now is       12.3 secs

     Computing kpt #:    75
     total cpu time spent up to now is       12.4 secs

     Computing kpt #:    76
     total cpu time spent up to now is       12.6 secs

     Computing kpt #:    77
     total cpu time spent up to now is       12.8 secs

     Computing kpt #:    78
     total cpu time spent up to now is       12.9 secs

     Computing kpt #:    79
     total cpu time spent up to now is       13.1 secs

     Computing kpt #:    80
     total cpu time spent up to now is       13.2 secs

     Computing kpt #:    81
     total cpu time spent up to now is       13.4 secs

     Computing kpt #:    82
     total cpu time spent up to now is       13.5 secs

     Computing kpt #:    83
     total cpu time spent up to now is       13.6 secs

     Computing kpt #:    84
     total cpu time spent up to now is       13.8 secs

     Computing kpt #:    85
     total cpu time spent up to now is       14.0 secs

     Computing kpt #:    86
     total cpu time spent up to now is       14.1 secs

     Computing kpt #:    87
     total cpu time spent up to now is       14.3 secs

     Computing kpt #:    88
     total cpu time spent up to now is       14.4 secs

     Computing kpt #:    89
     total cpu time spent up to now is       14.6 secs

     Computing kpt #:    90
     total cpu time spent up to now is       14.7 secs

     Computing kpt #:    91
     total cpu time spent up to now is       14.8 secs

     Computing kpt #:    92
     total cpu time spent up to now is       15.0 secs

     Computing kpt #:    93
     total cpu time spent up to now is       15.1 secs

     Computing kpt #:    94
     total cpu time spent up to now is       15.2 secs

     Computing kpt #:    95
     total cpu time spent up to now is       15.4 secs

     Computing kpt #:    96
     total cpu time spent up to now is       15.5 secs

     Computing kpt #:    97
     total cpu time spent up to now is       15.6 secs

     Computing kpt #:    98
     total cpu time spent up to now is       15.8 secs

     Computing kpt #:    99
     total cpu time spent up to now is       15.9 secs

     Computing kpt #:   100
     total cpu time spent up to now is       16.1 secs

     Computing kpt #:   101
     total cpu time spent up to now is       16.2 secs

     ethr =  5.00E-12,  avg # of iterations = 27.2

     total cpu time spent up to now is       16.2 secs

     End of band structure calculation

          k =-1.2242 0.4081-0.4081 (   751 PWs)   bands (ev):

    -3.2567  -0.6791   3.2972   4.5878   8.2882   9.9620  10.3481  14.1519
    14.6614  15.0181  17.0702  19.4349

          k =-1.1630 0.3877-0.3877 (   754 PWs)   bands (ev):

    -3.3986  -0.7868   4.1093   4.7830   8.2171   9.4193   9.8084  14.0913
    15.3344  15.6892  17.0202  18.5437

          k =-1.1018 0.3673-0.3673 (   757 PWs)   bands (ev):

    -3.4765  -0.8523   4.7716   4.9134   7.7562   9.4015   9.4904  13.7551
    16.2399  16.3819  17.3092  17.7285

          k =-1.0406 0.3469-0.3469 (   754 PWs)   bands (ev):

    -3.4880  -0.8623   4.8988   4.9344   7.6443   9.4198   9.4418  13.6909
    16.5255  16.5793  17.3820  17.5116

          k =-0.9794 0.3265-0.3265 (   752 PWs)   bands (ev):

    -3.4328  -0.8151   4.3688   4.8378   8.0702   9.3792   9.6711  13.9652
    15.6405  15.9305  17.1095  18.2487

          k =-0.9182 0.3061-0.3061 (   751 PWs)   bands (ev):

    -3.3125  -0.7195   3.5794   4.6591   8.3210   9.7078  10.1409  14.2297
    14.8278  15.2425  16.9819  19.1243

          k =-0.8570 0.2857-0.2857 (   751 PWs)   bands (ev):

    -3.1318  -0.6006   2.7782   4.4484   8.1495  10.5483  10.7950  13.7396
    14.4764  14.6146  17.4778  20.0300

          k =-0.7957 0.2652-0.2652 (   748 PWs)   bands (ev):

    -2.9023  -0.5170   2.1082   4.2459   7.8968  11.5311  11.5734  13.0365
    14.0785  14.0826  18.5585  20.9220

          k =-0.7345 0.2448-0.2448 (   740 PWs)   bands (ev):

    -2.6552  -0.5652   1.7243   4.0778   7.6846  12.0532  12.3498  12.8889
    13.6037  13.7361  19.9106  21.0408

          k =-0.6733 0.2244-0.2244 (   739 PWs)   bands (ev):

    -2.4808  -0.7323   1.7150   3.9598   7.5478  11.5650  12.6315  13.0038
    13.9540  14.0608  20.1327  21.2141

          k =-0.6121 0.2040-0.2040 (   750 PWs)   bands (ev):

    -2.5648  -0.7360   1.9848   3.9010   7.4979  11.0528  12.4056  12.5011
    15.0249  15.0467  19.4419  19.9993

          k =-0.5509 0.1836-0.1836 (   746 PWs)   bands (ev):

    -2.9456  -0.4159   2.4073   3.9068   7.5360  10.6279  11.9990  12.1133
    15.9973  16.2265  18.6846  18.9368

          k =-0.4897 0.1632-0.1632 (   755 PWs)   bands (ev):

    -3.4487   0.1154   2.9103   3.9798   7.6518  10.3182  11.5147  11.8324
    16.5624  17.2514  17.6973  18.0034

          k =-0.4285 0.1428-0.1428 (   752 PWs)   bands (ev):

    -3.9606   0.7708   3.4528   4.1207   7.8192  10.1523  11.0569  11.5574
    16.2981  16.5150  16.8354  18.8131

          k =-0.3673 0.1224-0.1224 (   751 PWs)   bands (ev):

    -4.4351   1.5147   4.0058   4.3285   7.9952  10.1365  10.6644  11.2562
    15.3647  15.4832  16.4469  19.0582

          k =-0.3061 0.1020-0.1020 (   758 PWs)   bands (ev):

    -4.8522   2.3291   4.5454   4.5998   8.1426  10.0237  10.6068  10.8833
    14.3130  14.6442  16.1983  18.1116

          k =-0.2448 0.0816-0.0816 (   755 PWs)   bands (ev):

    -5.2016   3.1984   4.9277   5.0483   8.2630   9.6921  10.4089  10.9288
    13.2683  14.1727  15.8260  17.3595

          k =-0.1836 0.0612-0.0612 (   755 PWs)   bands (ev):

    -5.4775   4.1019   5.2979   5.4893   8.3824   9.3607   9.8552  11.0205
    12.7099  13.9291  15.2036  17.0621

          k =-0.1224 0.0408-0.0408 (   742 PWs)   bands (ev):

    -5.6765   4.9990   5.6802   5.8387   8.5110   9.0716   9.2975  10.4130
    13.0248  13.8449  14.5300  17.0762

          k =-0.0612 0.0204-0.0204 (   737 PWs)   bands (ev):

    -5.7967   5.7816   6.0055   6.0655   8.6219   8.8196   8.8490   9.7189
    13.5788  13.8397  14.0376  17.1912

          k = 0.0000 0.0000 0.0000 (   749 PWs)   bands (ev):

    -5.8369   6.1445   6.1445   6.1445   8.6661   8.6661   8.6661   9.4422
    13.8470  13.8470  13.8573  17.2543

          k =-0.0408 0.0408-0.0408 (   737 PWs)   bands (ev):

    -5.7931   5.6767   6.0708   6.0708   8.7252   8.7738   8.7738   9.7698
    13.6963  13.6963  14.0531  17.0741

          k =-0.0816 0.0816-0.0816 (   743 PWs)   bands (ev):

    -5.6623   4.7082   5.8882   5.8882   8.6196   9.0417   9.0417  10.6301
    13.3917  13.3917  14.5648  16.7169

          k =-0.1224 0.1224-0.1224 (   760 PWs)   bands (ev):

    -5.4465   3.6227   5.6644   5.6644   8.4057   9.3489   9.3489  11.6467
    13.1690  13.1690  15.0484  16.6566

          k =-0.1632 0.1632-0.1632 (   754 PWs)   bands (ev):

    -5.1500   2.5419   5.4462   5.4462   8.1749   9.5686   9.5686  12.6586
    13.2036  13.2036  15.0061  17.4273

          k =-0.2040 0.2040-0.2040 (   757 PWs)   bands (ev):

    -4.7811   1.5161   5.2575   5.2575   7.9668   9.6339   9.6339  13.5370
    13.5776  13.5776  14.8550  18.6486

          k =-0.2448 0.2448-0.2448 (   757 PWs)   bands (ev):

    -4.3572   0.5819   5.1095   5.1095   7.7998   9.5838   9.5838  13.8699
    14.2561  14.2561  15.2699  19.8037

          k =-0.2857 0.2857-0.2857 (   763 PWs)   bands (ev):

    -3.9198  -0.2092   5.0070   5.0070   7.6823   9.4994   9.4994  13.7830
    15.1531  15.1531  16.1748  19.2022

          k =-0.3265 0.3265-0.3265 (   763 PWs)   bands (ev):

    -3.5741  -0.7466   4.9516   4.9516   7.6183   9.4390   9.4390  13.6897
    16.1764  16.1764  17.0716  17.9535

          k =-0.3673 0.3673-0.3673 (   754 PWs)   bands (ev):

    -3.5135  -0.8342   4.9438   4.9438   7.6093   9.4297   9.4297  13.6752
    16.4920  16.4920  17.2720  17.6058

          k =-0.4081 0.4081-0.4081 (   760 PWs)   bands (ev):

    -3.7882  -0.4216   4.9836   4.9836   7.6553   9.4751   9.4751  13.7461
    15.4808  15.4808  16.4882  18.7807

          k =-0.4489 0.4489-0.4489 (   763 PWs)   bands (ev):

    -4.2120   0.3032   5.0707   5.0707   7.7555   9.5563   9.5563  13.8564
    14.5301  14.5301  15.5443  20.0201

          k =-0.4897 0.4897-0.4897 (   757 PWs)   bands (ev):

    -4.6469   1.1978   5.2042   5.2042   7.9070   9.6262   9.6262  13.7291
    13.7705  13.7705  14.9010  19.0647

          k =-0.5305 0.5305-0.5305 (   754 PWs)   bands (ev):

    -5.0365   2.1978   5.3803   5.3803   8.1030   9.6071   9.6071  12.9731
    13.2884  13.2884  14.9366  17.8043

          k =-0.5713 0.5713-0.5713 (   754 PWs)   bands (ev):

    -5.3579   3.2648   5.5907   5.5907   8.3293   9.4359   9.4359  11.9832
    13.1457  13.1457  15.0892  16.8207

          k =-0.6121 0.6121-0.6121 (   743 PWs)   bands (ev):

    -5.6008   4.3567   5.8166   5.8166   8.5553   9.1446   9.1446  10.9577
    13.2998  13.2998  14.7575  16.6301

          k =-0.6529 0.6529-0.6529 (   737 PWs)   bands (ev):

    -5.7597   5.3870   6.0194   6.0194   8.7120   8.8492   8.8492  10.0145
    13.6009  13.6009  14.1946  16.9595

          k =-0.6937 0.6937-0.6937 (   737 PWs)   bands (ev):

    -5.8322   6.0871   6.1362   6.1362   8.6782   8.6782   8.6814   9.4753
    13.8292  13.8292  13.8789  17.2331

          k =-0.7345 0.7345-0.7345 (   737 PWs)   bands (ev):

    -5.8171   5.9166   6.1102   6.1102   8.7118   8.7161   8.7161   9.5870
    13.7748  13.7748  13.9471  17.1682

          k =-0.7753 0.7753-0.7753 (   737 PWs)   bands (ev):

    -5.7147   5.0493   5.9557   5.9557   8.6732   8.9431   8.9431  10.3166
    13.4930  13.4930  14.3744  16.8312

          k =-0.8162 0.8162-0.8162 (   749 PWs)   bands (ev):

    -5.5264   3.9816   5.7389   5.7389   8.4806   9.2521   9.2521  11.3094
    13.2208  13.2208  14.9350  16.5980

          k =-0.8366 0.7957-0.7957 (   748 PWs)   bands (ev):

    -5.5539   4.1573   5.6374   5.8165   8.5794   9.0453   9.3739  11.1430
    13.0307  13.4793  14.8967  16.6599

          k =-0.8570 0.7753-0.7753 (   749 PWs)   bands (ev):

    -5.5597   4.3136   5.5143   5.7353   8.5795   9.0487   9.5386  10.9848
    12.8483  13.7310  14.9226  16.8520

          k =-0.8774 0.7549-0.7549 (   755 PWs)   bands (ev):

    -5.5437   4.4335   5.3789   5.5445   8.3389   9.3864   9.7355  10.8263
    12.6915  13.9588  15.0100  17.1538

          k =-0.8978 0.7345-0.7345 (   759 PWs)   bands (ev):

    -5.5060   4.4811   5.2389   5.3078   8.0952   9.7929   9.9534  10.6631
    12.5858  14.1442  15.1610  17.5314

          k =-0.9182 0.7141-0.7141 (   761 PWs)   bands (ev):

    -5.4466   4.3891   5.1002   5.1045   7.9135  10.1635  10.1810  10.5054
    12.5671  14.2751  15.3739  17.9025

          k =-0.9386 0.6937-0.6937 (   759 PWs)   bands (ev):

    -5.3659   4.1203   4.9673   4.9776   7.8172  10.2908  10.4060  10.5026
    12.6796  14.3553  15.6385  17.9733

          k =-0.9590 0.6733-0.6733 (   757 PWs)   bands (ev):

    -5.2641   3.7368   4.8437   4.8756   7.8068  10.1692  10.6146  10.6369
    12.9477  14.4070  15.9310  17.8393

          k =-0.9794 0.6529-0.6529 (   754 PWs)   bands (ev):

    -5.1416   3.2995   4.7316   4.7583   7.8632  10.0679  10.6742  10.7918
    13.3455  14.4637  16.1989  17.7560

          k =-0.9998 0.6325-0.6325 (   753 PWs)   bands (ev):

    -4.9992   2.8374   4.6207   4.6328   7.9544  10.0207  10.6461  10.9235
    13.8231  14.5582  16.3535  17.8427

          k =-1.0202 0.6121-0.6121 (   756 PWs)   bands (ev):

    -4.8376   2.3661   4.4698   4.5486   8.0462  10.0453  10.5922  11.0011
    14.3412  14.7148  16.3511  18.1431

          k =-1.0406 0.5917-0.5917 (   758 PWs)   bands (ev):

    -4.6581   1.8959   4.3138   4.4798   8.1131  10.1362  10.5540  11.0241
    14.8755  14.9445  16.2523  18.5831

          k =-1.0610 0.5713-0.5713 (   753 PWs)   bands (ev):

    -4.4625   1.4344   4.1589   4.4270   8.1472  10.2156  10.6210  11.0001
    15.2466  15.4021  16.1328  19.0544

          k =-1.0814 0.5509-0.5509 (   755 PWs)   bands (ev):

    -4.2534   0.9886   4.0093   4.3906   8.1557  10.2026  10.8672  10.9412
    15.6125  15.7768  16.1606  19.3957

          k =-1.1018 0.5305-0.5305 (   752 PWs)   bands (ev):

    -4.0349   0.5655   3.8683   4.3707   8.1516  10.1502  10.8600  11.2263
    15.7363  16.0303  16.6065  18.8563

          k =-1.1222 0.5101-0.5101 (   752 PWs)   bands (ev):

    -3.8134   0.1738   3.7381   4.3673   8.1462  10.0936  10.7674  11.6498
    15.6126  16.4821  17.1316  18.2359

          k =-1.1426 0.4897-0.4897 (   759 PWs)   bands (ev):

    -3.5996  -0.1743   3.6202   4.3802   8.1476  10.0433  10.6715  12.1164
    15.4799  16.8968  17.6170  17.6794

          k =-1.1630 0.4693-0.4693 (   752 PWs)   bands (ev):

    -3.4108  -0.4604   3.5162   4.4092   8.1605  10.0036  10.5785  12.6132
    15.3360  16.7543  17.7209  17.7863

          k =-1.1834 0.4489-0.4489 (   750 PWs)   bands (ev):

    -3.2731  -0.6579   3.4270   4.4539   8.1876   9.9761  10.4922  13.1291
    15.1641  16.1871  17.5145  18.2328

          k =-1.2038 0.4285-0.4285 (   751 PWs)   bands (ev):

    -3.2163  -0.7362   3.3537   4.5137   8.2302   9.9620  10.4151  13.6510
    14.9414  15.5941  17.2339  18.8182

          k =-1.2242 0.4081-0.4081 (   751 PWs)   bands (ev):

    -3.2567  -0.6791   3.2972   4.5878   8.2882   9.9620  10.3481  14.1519
    14.6614  15.0181  17.0702  19.4349

          k =-1.1834 0.3673-0.4081 (   753 PWs)   bands (ev):

    -3.3801  -0.7335   3.8775   4.7229   8.3494   9.4018  10.0204  14.1703
    14.9514  15.5854  17.0019  18.6808

          k =-1.1426 0.3265-0.4081 (   755 PWs)   bands (ev):

    -3.4473  -0.7676   4.3138   4.7792   8.1553   9.3026   9.8011  13.9562
    15.1600  16.3115  17.3401  17.8158

          k =-1.1018 0.2857-0.4081 (   754 PWs)   bands (ev):

    -3.4572  -0.7728   4.3920   4.7841   8.0962   9.3279   9.7518  13.9173
    15.1834  16.5284  17.4563  17.5946

          k =-1.0610 0.2448-0.4081 (   754 PWs)   bands (ev):

    -3.4097  -0.7481   4.0536   4.7505   8.3042   9.3135   9.9373  14.0878
    15.0515  15.8289  17.0865  18.3746

          k =-1.0202 0.2040-0.4081 (   751 PWs)   bands (ev):

    -3.3055  -0.6992   3.5029   4.6440   8.3296   9.7445  10.2083  14.2471
    14.7302  15.1769  16.9913  19.2197

          k =-0.9794 0.1632-0.4081 (   752 PWs)   bands (ev):

    -3.1462  -0.6411   2.9093   4.4518   8.2055  10.2729  10.8080  13.7670
    14.3970  15.0024  17.3666  19.6647

          k =-0.9386 0.1224-0.4081 (   749 PWs)   bands (ev):

    -2.9352  -0.6034   2.3770   4.1731   8.1456  10.5858  11.8093  13.0789
    13.7720  15.2421  18.1062  19.8055

          k =-0.8978 0.0816-0.4081 (   743 PWs)   bands (ev):

    -2.6790  -0.6334   1.9883   3.8274   8.2063  10.8848  12.3773  12.8804
    13.2161  15.4899  19.0554  19.8738

          k =-0.8570 0.0408-0.4081 (   743 PWs)   bands (ev):

    -2.3923  -0.7714   1.8055   3.4503   8.3877  11.1319  11.8672  12.4693
    14.1209  15.7575  19.6926  20.2443

          k =-0.8162-0.0000-0.4081 (   739 PWs)   bands (ev):

    -2.1186  -0.9811   1.8259   3.0871   8.6742  10.9532  11.8018  11.9616
    15.0411  16.2005  19.4049  20.6681

          k =-0.7753-0.0408-0.4081 (   746 PWs)   bands (ev):

    -2.0008  -1.0798   1.9662   2.8044   9.0471  10.5002  11.3383  12.2824
    15.4188  16.9964  18.6490  20.3216

          k =-0.7345-0.0816-0.4081 (   745 PWs)   bands (ev):

    -2.1765  -0.8987   2.0620   2.7476   9.4774  10.0738  10.8689  12.7697
    15.3564  17.0917  18.6053  20.2574

          k =-0.6937-0.1224-0.4081 (   745 PWs)   bands (ev):

    -2.4835  -0.6078   2.0475   2.9920   9.6406   9.9530  10.5433  13.3147
    14.8162  16.5252  19.1524  20.4440

          k =-0.6529-0.1632-0.4081 (   746 PWs)   bands (ev):

    -2.8008  -0.3705   2.1234   3.3710   9.3615   9.8792  10.8043  13.8257
    13.9218  16.2114  19.0214  19.8970

          k =-0.6121-0.2040-0.4081 (   750 PWs)   bands (ev):

    -3.0897  -0.2576   2.4040   3.7845   9.1344   9.5946  11.4143  12.7470
    14.5021  15.9952  18.2832  19.5841

          k =-0.5713-0.2448-0.4081 (   748 PWs)   bands (ev):

    -3.3357  -0.2543   2.8783   4.1834   8.9495   9.3599  11.6656  12.1198
    15.0357  15.7728  17.5512  19.3969

          k =-0.5305-0.2857-0.4081 (   753 PWs)   bands (ev):

    -3.5316  -0.3044   3.4785   4.5296   8.7139   9.2604  10.7209  12.8488
    15.1062  15.7362  17.2472  18.7219

          k =-0.4897-0.3265-0.4081 (   753 PWs)   bands (ev):

    -3.6735  -0.3633   4.1254   4.7922   8.3440   9.3014  10.0106  13.5345
    14.7596  15.8242  17.5196  17.8040

          k =-0.4489-0.3673-0.4081 (   755 PWs)   bands (ev):

    -3.7595  -0.4062   4.7014   4.9521   7.8910   9.3973   9.6197  13.7988
    14.8909  15.7765  16.9306  18.1469

          k =-0.4081-0.4081-0.4081 (   760 PWs)   bands (ev):

    -3.7882  -0.4216   4.9836   4.9836   7.6553   9.4751   9.4751  13.7461
    15.4808  15.4808  16.4882  18.7807

          k =-0.3877-0.3877-0.3877 (   763 PWs)   bands (ev):

    -3.6191  -0.6802   4.9577   4.9577   7.6254   9.4461   9.4461  13.7010
    15.9984  15.9984  16.9367  18.1570

          k =-0.3673-0.3673-0.3673 (   754 PWs)   bands (ev):

    -3.5135  -0.8342   4.9438   4.9438   7.6093   9.4297   9.4297  13.6752
    16.4920  16.4920  17.2720  17.6058

          k =-0.3469-0.3469-0.3469 (   754 PWs)   bands (ev):

    -3.4968  -0.8579   4.9417   4.9417   7.6069   9.4272   9.4272  13.6713
    16.6159  16.6159  17.3325  17.4733

          k =-0.3265-0.3265-0.3265 (   763 PWs)   bands (ev):

    -3.5741  -0.7466   4.9516   4.9516   7.6183   9.4390   9.4390  13.6897
    16.1764  16.1764  17.0716  17.9535

          k =-0.3061-0.3061-0.3061 (   760 PWs)   bands (ev):

    -3.7247  -0.5206   4.9733   4.9733   7.6435   9.4639   9.4639  13.7287
    15.6574  15.6574  16.6488  18.5624

          k =-0.2857-0.2857-0.2857 (   763 PWs)   bands (ev):

    -3.9198  -0.2092   5.0070   5.0070   7.6823   9.4994   9.4994  13.7830
    15.1531  15.1531  16.1748  19.2022

          k =-0.2652-0.2652-0.2652 (   763 PWs)   bands (ev):

    -4.1358   0.1637   5.0524   5.0524   7.7345   9.5414   9.5414  13.8405
    14.6824  14.6824  15.7004  19.8457

          k =-0.2448-0.2448-0.2448 (   757 PWs)   bands (ev):

    -4.3572   0.5819   5.1095   5.1095   7.7998   9.5838   9.5838  13.8699
    14.2561  14.2561  15.2699  19.8037

          k =-0.2244-0.2244-0.2244 (   757 PWs)   bands (ev):

    -4.5743   1.0350   5.1781   5.1781   7.8775   9.6181   9.6181  13.7965
    13.8840  13.8840  14.9612  19.2752

          k =-0.2040-0.2040-0.2040 (   757 PWs)   bands (ev):

    -4.7811   1.5161   5.2575   5.2575   7.9668   9.6339   9.6339  13.5370
    13.5776  13.5776  14.8550  18.6486

          k =-0.1836-0.1836-0.1836 (   757 PWs)   bands (ev):

    -4.9738   2.0198   5.3472   5.3472   8.0666   9.6203   9.6203  13.1309
    13.3480  13.3480  14.9031  18.0143

          k =-0.1632-0.1632-0.1632 (   754 PWs)   bands (ev):

    -5.1500   2.5419   5.4462   5.4462   8.1749   9.5686   9.5686  12.6586
    13.2036  13.2036  15.0061  17.4273

          k =-0.1428-0.1428-0.1428 (   757 PWs)   bands (ev):

    -5.3080   3.0779   5.5527   5.5527   8.2892   9.4763   9.4763  12.1586
    13.1462  13.1462  15.0840  16.9466

          k =-0.1224-0.1224-0.1224 (   760 PWs)   bands (ev):

    -5.4465   3.6227   5.6644   5.6644   8.4057   9.3489   9.3489  11.6467
    13.1690  13.1690  15.0484  16.6566

          k =-0.1020-0.1020-0.1020 (   749 PWs)   bands (ev):

    -5.5648   4.1696   5.7779   5.7779   8.5186   9.1987   9.1987  11.1330
    13.2575  13.2575  14.8515  16.6043

          k =-0.0816-0.0816-0.0816 (   743 PWs)   bands (ev):

    -5.6623   4.7082   5.8882   5.8882   8.6196   9.0417   9.0417  10.6301
    13.3917  13.3917  14.5648  16.7169

          k =-0.0612-0.0612-0.0612 (   737 PWs)   bands (ev):

    -5.7385   5.2214   5.9886   5.9886   8.6953   8.8946   8.8946  10.1610
    13.5473  13.5473  14.2811  16.8954

          k =-0.0408-0.0408-0.0408 (   737 PWs)   bands (ev):

    -5.7931   5.6767   6.0708   6.0708   8.7252   8.7738   8.7738   9.7698
    13.6963  13.6963  14.0531  17.0741

          k =-0.0204-0.0204-0.0204 (   737 PWs)   bands (ev):

    -5.8259   6.0143   6.1253   6.1253   8.6941   8.6941   8.6969   9.5208
    13.8061  13.8061  13.9073  17.2057

          k = 0.0000 0.0000 0.0000 (   749 PWs)   bands (ev):

    -5.8369   6.1445   6.1445   6.1445   8.6661   8.6661   8.6661   9.4422
    13.8470  13.8470  13.8573  17.2543

     Writing output data file Si.save/

     init_run     :      0.38s CPU      0.60s WALL (       1 calls)
     electrons    :     14.35s CPU     14.70s WALL (       1 calls)

     Called by init_run:
     wfcinit      :      0.00s CPU      0.00s WALL (       1 calls)
     wfcinit:atom :      0.01s CPU      0.01s WALL (     101 calls)
     wfcinit:wfcr :      0.65s CPU      0.70s WALL (     101 calls)
     potinit      :      0.03s CPU      0.04s WALL (       1 calls)
     hinit0       :      0.31s CPU      0.35s WALL (       1 calls)

     Called by electrons:
     c_bands      :     14.35s CPU     14.69s WALL (       1 calls)
     v_of_rho     :      0.02s CPU      0.03s WALL (       1 calls)
     v_h          :      0.00s CPU      0.00s WALL (       1 calls)
     v_xc         :      0.02s CPU      0.03s WALL (       1 calls)
     newd         :      0.03s CPU      0.19s WALL (       1 calls)

     Called by c_bands:
     init_us_2    :      0.03s CPU      0.03s WALL (     101 calls)
     cegterg      :     13.45s CPU     13.64s WALL (     180 calls)

     Called by sum_band:

     Called by *egterg:
     h_psi        :      8.80s CPU      8.97s WALL (    3031 calls)
     s_psi        :      0.81s CPU      0.82s WALL (    3031 calls)
     g_psi        :      0.11s CPU      0.11s WALL (    2750 calls)
     cdiaghg      :      1.09s CPU      1.12s WALL (    2851 calls)
     cegterg:over :      1.28s CPU      1.30s WALL (    2750 calls)
     cegterg:upda :      0.92s CPU      0.94s WALL (    2750 calls)
     cegterg:last :      0.83s CPU      0.84s WALL (     582 calls)

     Called by h_psi:
     h_psi:pot    :      8.77s CPU      8.93s WALL (    3031 calls)
     h_psi:calbec :      0.83s CPU      0.85s WALL (    3031 calls)
     vloc_psi     :      7.11s CPU      7.25s WALL (    3031 calls)
     add_vuspsi   :      0.81s CPU      0.83s WALL (    3031 calls)

     General routines
     calbec       :      0.83s CPU      0.84s WALL (    3031 calls)
     fft          :      0.01s CPU      0.04s WALL (      13 calls)
     ffts         :      0.00s CPU      0.00s WALL (       1 calls)
     fftw         :      5.60s CPU      5.71s WALL (   41094 calls)
     interpolate  :      0.00s CPU      0.00s WALL (       1 calls)
     davcio       :      0.04s CPU      0.13s WALL (     202 calls)

     Parallel routines

     PWSCF        :     15.58s CPU     16.48s WALL


   This run was terminated on:   7: 5:49  15Mar2023            

=------------------------------------------------------------------------------=
   JOB DONE.
=------------------------------------------------------------------------------=
