
     Program BANDS v.6.4.1 starts on 15Mar2023 at  8:22:35 

     This program is part of the open-source Quantum ESPRESSO suite
     for quantum simulation of materials; please cite
         "P. Giannozzi et al., J. Phys.:Condens. Matter 21 395502 (2009);
         "P. Giannozzi et al., J. Phys.:Condens. Matter 29 465901 (2017);
          URL http://www.quantum-espresso.org", 
     in publications or presentations arising from this work. More details at
     http://www.quantum-espresso.org/quote

     Parallel version (MPI), running on     1 processors

     MPI processes distributed on     1 nodes

     Reading data from directory:
     ./Si.save/

     IMPORTANT: XC functional enforced from input :
     Exchange-correlation      = PBESOL ( 1  4 10  8 0 0)
     Any further DFT definition will be discarded
     Please, verify this is what you really want


     G-vector sticks info
     --------------------
     sticks:   dense  smooth     PW     G-vecs:    dense   smooth      PW
     Sum         859     433    163                16889     5985    1363

     high-symmetry point: -1.2242 0.4081-0.4081   x coordinate   0.0000
     high-symmetry point:  0.0000 0.0000 0.0000   x coordinate   1.3534
     high-symmetry point: -0.8162 0.8162-0.8162   x coordinate   2.7670
     high-symmetry point: -1.2242 0.4081-0.4081   x coordinate   3.4739
     high-symmetry point: -0.4081-0.4081-0.4081   x coordinate   4.6281
     high-symmetry point:  0.0000 0.0000 0.0000   x coordinate   5.3349

     Plottable bands (eV) written to file si_bands.dat.gnu
     Bands written to file si_bands.dat

 **************************************************************************

                    xk=(  -1.22423,   0.40808,  -0.40808  )

     point group C_s (m)    
     there are  2 classes
     the character table:

       E     s    
A'     1.00  1.00
A''    1.00 -1.00

     the symmetry operations in each class and the name of the first element:

     E        1
                                                                 
     s        2
                                                                 

     Band symmetry, C_s (m)     point group:

     e(  1 -  1) =     -3.25673  eV     1   --> A'             
     e(  2 -  2) =     -0.67913  eV     1   --> A'             
     e(  3 -  3) =      3.29723  eV     1   --> A'             
     e(  4 -  4) =      4.58783  eV     1   --> A''            
     e(  5 -  5) =      8.28816  eV     1   --> A'             
     e(  6 -  6) =      9.96198  eV     1   --> A'             
     e(  7 -  7) =     10.34811  eV     1   --> A''            
     e(  8 -  8) =     14.15185  eV     1   --> A'             
     e(  9 -  9) =     14.66144  eV     1   --> A'             
     e( 10 - 10) =     15.01807  eV     1   --> A''            
     e( 11 - 11) =     17.07023  eV     1   --> A'             
     e( 12 - 12) =     19.43490  eV     1   --> A''            

 **************************************************************************

 **************************************************************************

                    xk=(  -1.16302,   0.38767,  -0.38767  )

     Band symmetry, C_s (m)     point group:

     e(  1 -  1) =     -3.39857  eV     1   --> A'             
     e(  2 -  2) =     -0.78684  eV     1   --> A'             
     e(  3 -  3) =      4.10925  eV     1   --> A'             
     e(  4 -  4) =      4.78301  eV     1   --> A''            
     e(  5 -  5) =      8.21706  eV     1   --> A'             
     e(  6 -  6) =      9.41929  eV     1   --> A'             
     e(  7 -  7) =      9.80845  eV     1   --> A''            
     e(  8 -  8) =     14.09133  eV     1   --> A'             
     e(  9 -  9) =     15.33437  eV     1   --> A'             
     e( 10 - 10) =     15.68920  eV     1   --> A''            
     e( 11 - 11) =     17.02023  eV     1   --> A'             
     e( 12 - 12) =     18.54368  eV     1   --> A''            

 **************************************************************************

 **************************************************************************

                    xk=(  -1.10180,   0.36727,  -0.36727  )

     Band symmetry, C_s (m)     point group:

     e(  1 -  1) =     -3.47649  eV     1   --> A'             
     e(  2 -  2) =     -0.85229  eV     1   --> A'             
     e(  3 -  3) =      4.77165  eV     1   --> A'             
     e(  4 -  4) =      4.91335  eV     1   --> A''            
     e(  5 -  5) =      7.75622  eV     1   --> A'             
     e(  6 -  6) =      9.40148  eV     1   --> A'             
     e(  7 -  7) =      9.49043  eV     1   --> A''            
     e(  8 -  8) =     13.75508  eV     1   --> A'             
     e(  9 -  9) =     16.23987  eV     1   --> A'             
     e( 10 - 10) =     16.38188  eV     1   --> A''            
     e( 11 - 11) =     17.30921  eV     1   --> A'             
     e( 12 - 12) =     17.72852  eV     1   --> A''            

 **************************************************************************

 **************************************************************************

                    xk=(  -1.04059,   0.34686,  -0.34686  )

     Band symmetry, C_s (m)     point group:

     e(  1 -  1) =     -3.48800  eV     1   --> A'             
     e(  2 -  2) =     -0.86228  eV     1   --> A'             
     e(  3 -  3) =      4.89878  eV     1   --> A'             
     e(  4 -  4) =      4.93441  eV     1   --> A''            
     e(  5 -  5) =      7.64428  eV     1   --> A'             
     e(  6 -  6) =      9.41977  eV     1   --> A'             
     e(  7 -  7) =      9.44175  eV     1   --> A''            
     e(  8 -  8) =     13.69091  eV     1   --> A'             
     e(  9 -  9) =     16.52549  eV     1   --> A'             
     e( 10 - 10) =     16.57925  eV     1   --> A''            
     e( 11 - 11) =     17.38199  eV     1   --> A'             
     e( 12 - 12) =     17.51163  eV     1   --> A'             

 **************************************************************************

 **************************************************************************

                    xk=(  -0.97938,   0.32646,  -0.32646  )

     Band symmetry, C_s (m)     point group:

     e(  1 -  1) =     -3.43279  eV     1   --> A'             
     e(  2 -  2) =     -0.81512  eV     1   --> A'             
     e(  3 -  3) =      4.36885  eV     1   --> A'             
     e(  4 -  4) =      4.83783  eV     1   --> A''            
     e(  5 -  5) =      8.07018  eV     1   --> A'             
     e(  6 -  6) =      9.37918  eV     1   --> A'             
     e(  7 -  7) =      9.67112  eV     1   --> A''            
     e(  8 -  8) =     13.96523  eV     1   --> A'             
     e(  9 -  9) =     15.64053  eV     1   --> A'             
     e( 10 - 10) =     15.93051  eV     1   --> A''            
     e( 11 - 11) =     17.10954  eV     1   --> A'             
     e( 12 - 12) =     18.24868  eV     1   --> A''            

 **************************************************************************

 **************************************************************************

                    xk=(  -0.91817,   0.30606,  -0.30606  )

     Band symmetry, C_s (m)     point group:

     e(  1 -  1) =     -3.31250  eV     1   --> A'             
     e(  2 -  2) =     -0.71948  eV     1   --> A'             
     e(  3 -  3) =      3.57938  eV     1   --> A'             
     e(  4 -  4) =      4.65915  eV     1   --> A''            
     e(  5 -  5) =      8.32104  eV     1   --> A'             
     e(  6 -  6) =      9.70784  eV     1   --> A'             
     e(  7 -  7) =     10.14085  eV     1   --> A''            
     e(  8 -  8) =     14.22967  eV     1   --> A'             
     e(  9 -  9) =     14.82779  eV     1   --> A'             
     e( 10 - 10) =     15.24254  eV     1   --> A''            
     e( 11 - 11) =     16.98195  eV     1   --> A'             
     e( 12 - 12) =     19.12429  eV     1   --> A''            

 **************************************************************************

 **************************************************************************

                    xk=(  -0.85696,   0.28565,  -0.28565  )

     Band symmetry, C_s (m)     point group:

     e(  1 -  1) =     -3.13181  eV     1   --> A'             
     e(  2 -  2) =     -0.60056  eV     1   --> A'             
     e(  3 -  3) =      2.77823  eV     1   --> A'             
     e(  4 -  4) =      4.44842  eV     1   --> A''            
     e(  5 -  5) =      8.14953  eV     1   --> A'             
     e(  6 -  6) =     10.54826  eV     1   --> A'             
     e(  7 -  7) =     10.79496  eV     1   --> A''            
     e(  8 -  8) =     13.73958  eV     1   --> A'             
     e(  9 -  9) =     14.47644  eV     1   --> A'             
     e( 10 - 10) =     14.61455  eV     1   --> A''            
     e( 11 - 11) =     17.47777  eV     1   --> A'             
     e( 12 - 12) =     20.02996  eV     1   --> A''            

 **************************************************************************

 **************************************************************************

                    xk=(  -0.79575,   0.26525,  -0.26525  )

     Band symmetry, C_s (m)     point group:

     e(  1 -  1) =     -2.90233  eV     1   --> A'             
     e(  2 -  2) =     -0.51695  eV     1   --> A'             
     e(  3 -  3) =      2.10818  eV     1   --> A'             
     e(  4 -  4) =      4.24592  eV     1   --> A''            
     e(  5 -  5) =      7.89679  eV     1   --> A'             
     e(  6 -  6) =     11.53105  eV     1   --> A'             
     e(  7 -  7) =     11.57337  eV     1   --> A''            
     e(  8 -  8) =     13.03653  eV     1   --> A'             
     e(  9 -  9) =     14.07850  eV     1   --> A''            
     e( 10 - 10) =     14.08256  eV     1   --> A'             
     e( 11 - 11) =     18.55849  eV     1   --> A'             
     e( 12 - 12) =     20.92202  eV     1   --> A''            

 **************************************************************************

 **************************************************************************

                    xk=(  -0.73454,   0.24485,  -0.24485  )

     Band symmetry, C_s (m)     point group:

     e(  1 -  1) =     -2.65515  eV     1   --> A'             
     e(  2 -  2) =     -0.56516  eV     1   --> A'             
     e(  3 -  3) =      1.72433  eV     1   --> A'             
     e(  4 -  4) =      4.07780  eV     1   --> A''            
     e(  5 -  5) =      7.68461  eV     1   --> A'             
     e(  6 -  6) =     12.05319  eV     1   --> A'             
     e(  7 -  7) =     12.34982  eV     1   --> A''            
     e(  8 -  8) =     12.88890  eV     1   --> A'             
     e(  9 -  9) =     13.60369  eV     1   --> A'             
     e( 10 - 10) =     13.73614  eV     1   --> A''            
     e( 11 - 11) =     19.91059  eV     1   --> A'             
     e( 12 - 12) =     21.04084  eV     1   --> A'             

 **************************************************************************

 **************************************************************************

                    xk=(  -0.67332,   0.22444,  -0.22444  )

     Band symmetry, C_s (m)     point group:

     e(  1 -  1) =     -2.48085  eV     1   --> A'             
     e(  2 -  2) =     -0.73227  eV     1   --> A'             
     e(  3 -  3) =      1.71497  eV     1   --> A'             
     e(  4 -  4) =      3.95976  eV     1   --> A''            
     e(  5 -  5) =      7.54777  eV     1   --> A'             
     e(  6 -  6) =     11.56497  eV     1   --> A'             
     e(  7 -  7) =     12.63150  eV     1   --> A''            
     e(  8 -  8) =     13.00384  eV     1   --> A'             
     e(  9 -  9) =     13.95395  eV     1   --> A'             
     e( 10 - 10) =     14.06078  eV     1   --> A''            
     e( 11 - 11) =     20.13267  eV     1   --> A'             
     e( 12 - 12) =     21.21409  eV     1   --> A'             

 **************************************************************************

 **************************************************************************

                    xk=(  -0.61211,   0.20404,  -0.20404  )

     Band symmetry, C_s (m)     point group:

     e(  1 -  1) =     -2.56479  eV     1   --> A'             
     e(  2 -  2) =     -0.73597  eV     1   --> A'             
     e(  3 -  3) =      1.98476  eV     1   --> A'             
     e(  4 -  4) =      3.90099  eV     1   --> A''            
     e(  5 -  5) =      7.49793  eV     1   --> A'             
     e(  6 -  6) =     11.05281  eV     1   --> A'             
     e(  7 -  7) =     12.40561  eV     1   --> A''            
     e(  8 -  8) =     12.50105  eV     1   --> A'             
     e(  9 -  9) =     15.02487  eV     1   --> A'             
     e( 10 - 10) =     15.04674  eV     1   --> A''            
     e( 11 - 11) =     19.44188  eV     1   --> A'             
     e( 12 - 12) =     19.99929  eV     1   --> A''            

 **************************************************************************

 **************************************************************************

                    xk=(  -0.55090,   0.18363,  -0.18363  )

     Band symmetry, C_s (m)     point group:

     e(  1 -  1) =     -2.94562  eV     1   --> A'             
     e(  2 -  2) =     -0.41592  eV     1   --> A'             
     e(  3 -  3) =      2.40729  eV     1   --> A'             
     e(  4 -  4) =      3.90681  eV     1   --> A''            
     e(  5 -  5) =      7.53605  eV     1   --> A'             
     e(  6 -  6) =     10.62794  eV     1   --> A'             
     e(  7 -  7) =     11.99904  eV     1   --> A'             
     e(  8 -  8) =     12.11331  eV     1   --> A''            
     e(  9 -  9) =     15.99730  eV     1   --> A'             
     e( 10 - 10) =     16.22650  eV     1   --> A''            
     e( 11 - 11) =     18.68456  eV     1   --> A''            
     e( 12 - 12) =     18.93677  eV     1   --> A'             

 **************************************************************************

 **************************************************************************

                    xk=(  -0.48969,   0.16323,  -0.16323  )

     Band symmetry, C_s (m)     point group:

     e(  1 -  1) =     -3.44873  eV     1   --> A'             
     e(  2 -  2) =      0.11536  eV     1   --> A'             
     e(  3 -  3) =      2.91031  eV     1   --> A'             
     e(  4 -  4) =      3.97979  eV     1   --> A''            
     e(  5 -  5) =      7.65185  eV     1   --> A'             
     e(  6 -  6) =     10.31825  eV     1   --> A'             
     e(  7 -  7) =     11.51468  eV     1   --> A'             
     e(  8 -  8) =     11.83237  eV     1   --> A''            
     e(  9 -  9) =     16.56240  eV     1   --> A'             
     e( 10 - 10) =     17.25138  eV     1   --> A''            
     e( 11 - 11) =     17.69730  eV     1   --> A''            
     e( 12 - 12) =     18.00339  eV     1   --> A'             

 **************************************************************************

 **************************************************************************

                    xk=(  -0.42848,   0.14283,  -0.14283  )

     Band symmetry, C_s (m)     point group:

     e(  1 -  1) =     -3.96057  eV     1   --> A'             
     e(  2 -  2) =      0.77076  eV     1   --> A'             
     e(  3 -  3) =      3.45280  eV     1   --> A'             
     e(  4 -  4) =      4.12074  eV     1   --> A''            
     e(  5 -  5) =      7.81925  eV     1   --> A'             
     e(  6 -  6) =     10.15227  eV     1   --> A'             
     e(  7 -  7) =     11.05693  eV     1   --> A'             
     e(  8 -  8) =     11.55738  eV     1   --> A''            
     e(  9 -  9) =     16.29812  eV     1   --> A''            
     e( 10 - 10) =     16.51504  eV     1   --> A'             
     e( 11 - 11) =     16.83545  eV     1   --> A'             
     e( 12 - 12) =     18.81305  eV     1   --> A''            

 **************************************************************************

 **************************************************************************

                    xk=(  -0.36727,   0.12242,  -0.12242  )

     Band symmetry, C_s (m)     point group:

     e(  1 -  1) =     -4.43512  eV     1   --> A'             
     e(  2 -  2) =      1.51475  eV     1   --> A'             
     e(  3 -  3) =      4.00585  eV     1   --> A'             
     e(  4 -  4) =      4.32851  eV     1   --> A''            
     e(  5 -  5) =      7.99517  eV     1   --> A'             
     e(  6 -  6) =     10.13645  eV     1   --> A'             
     e(  7 -  7) =     10.66443  eV     1   --> A'             
     e(  8 -  8) =     11.25621  eV     1   --> A''            
     e(  9 -  9) =     15.36472  eV     1   --> A''            
     e( 10 - 10) =     15.48317  eV     1   --> A'             
     e( 11 - 11) =     16.44690  eV     1   --> A'             
     e( 12 - 12) =     19.05825  eV     1   --> A'             

 **************************************************************************

 **************************************************************************

                    xk=(  -0.30606,   0.10202,  -0.10202  )

     Band symmetry, C_s (m)     point group:

     e(  1 -  1) =     -4.85220  eV     1   --> A'             
     e(  2 -  2) =      2.32909  eV     1   --> A'             
     e(  3 -  3) =      4.54537  eV     1   --> A'             
     e(  4 -  4) =      4.59978  eV     1   --> A''            
     e(  5 -  5) =      8.14255  eV     1   --> A'             
     e(  6 -  6) =     10.02369  eV     1   --> A'             
     e(  7 -  7) =     10.60675  eV     1   --> A'             
     e(  8 -  8) =     10.88333  eV     1   --> A''            
     e(  9 -  9) =     14.31296  eV     1   --> A'             
     e( 10 - 10) =     14.64421  eV     1   --> A''            
     e( 11 - 11) =     16.19826  eV     1   --> A'             
     e( 12 - 12) =     18.11164  eV     1   --> A'             

 **************************************************************************

 **************************************************************************

                    xk=(  -0.24485,   0.08162,  -0.08162  )

     Band symmetry, C_s (m)     point group:

     e(  1 -  1) =     -5.20157  eV     1   --> A'             
     e(  2 -  2) =      3.19842  eV     1   --> A'             
     e(  3 -  3) =      4.92768  eV     1   --> A''            
     e(  4 -  4) =      5.04834  eV     1   --> A'             
     e(  5 -  5) =      8.26302  eV     1   --> A'             
     e(  6 -  6) =      9.69211  eV     1   --> A'             
     e(  7 -  7) =     10.40886  eV     1   --> A''            
     e(  8 -  8) =     10.92877  eV     1   --> A'             
     e(  9 -  9) =     13.26826  eV     1   --> A'             
     e( 10 - 10) =     14.17272  eV     1   --> A''            
     e( 11 - 11) =     15.82604  eV     1   --> A'             
     e( 12 - 12) =     17.35948  eV     1   --> A'             

 **************************************************************************

 **************************************************************************

                    xk=(  -0.18363,   0.06121,  -0.06121  )

     Band symmetry, C_s (m)     point group:

     e(  1 -  1) =     -5.47749  eV     1   --> A'             
     e(  2 -  2) =      4.10194  eV     1   --> A'             
     e(  3 -  3) =      5.29789  eV     1   --> A''            
     e(  4 -  4) =      5.48926  eV     1   --> A'             
     e(  5 -  5) =      8.38241  eV     1   --> A'             
     e(  6 -  6) =      9.36068  eV     1   --> A'             
     e(  7 -  7) =      9.85519  eV     1   --> A''            
     e(  8 -  8) =     11.02047  eV     1   --> A'             
     e(  9 -  9) =     12.70990  eV     1   --> A'             
     e( 10 - 10) =     13.92912  eV     1   --> A''            
     e( 11 - 11) =     15.20359  eV     1   --> A'             
     e( 12 - 12) =     17.06215  eV     1   --> A'             

 **************************************************************************

 **************************************************************************

                    xk=(  -0.12242,   0.04081,  -0.04081  )

     Band symmetry, C_s (m)     point group:

     e(  1 -  1) =     -5.67655  eV     1   --> A'             
     e(  2 -  2) =      4.99899  eV     1   --> A'             
     e(  3 -  3) =      5.68016  eV     1   --> A''            
     e(  4 -  4) =      5.83865  eV     1   --> A'             
     e(  5 -  5) =      8.51103  eV     1   --> A'             
     e(  6 -  6) =      9.07160  eV     1   --> A'             
     e(  7 -  7) =      9.29751  eV     1   --> A''            
     e(  8 -  8) =     10.41302  eV     1   --> A'             
     e(  9 -  9) =     13.02476  eV     1   --> A'             
     e( 10 - 10) =     13.84494  eV     1   --> A''            
     e( 11 - 11) =     14.53004  eV     1   --> A'             
     e( 12 - 12) =     17.07623  eV     1   --> A'             

 **************************************************************************

 **************************************************************************

                    xk=(  -0.06121,   0.02040,  -0.02040  )

     Band symmetry, C_s (m)     point group:

     e(  1 -  1) =     -5.79670  eV     1   --> A'             
     e(  2 -  2) =      5.78157  eV     1   --> A'             
     e(  3 -  3) =      6.00553  eV     1   --> A''            
     e(  4 -  4) =      6.06549  eV     1   --> A'             
     e(  5 -  5) =      8.62186  eV     1   --> A'             
     e(  6 -  6) =      8.81964  eV     1   --> A'             
     e(  7 -  7) =      8.84897  eV     1   --> A''            
     e(  8 -  8) =      9.71885  eV     1   --> A'             
     e(  9 -  9) =     13.57878  eV     1   --> A'             
     e( 10 - 10) =     13.83972  eV     1   --> A''            
     e( 11 - 11) =     14.03755  eV     1   --> A'             
     e( 12 - 12) =     17.19118  eV     1   --> A'             

 **************************************************************************

 **************************************************************************

                    xk=(   0.00000,   0.00000,   0.00000  )

     point group O_h (m-3m) 
     there are 10 classes
     the character table:

       E     8C3   3C2   6C4   6C2'  i     8S6   3s_h  6S4   6s_d 
A_1g   1.00  1.00  1.00  1.00  1.00  1.00  1.00  1.00  1.00  1.00
A_2g   1.00  1.00  1.00 -1.00 -1.00  1.00  1.00  1.00 -1.00 -1.00
E_g    2.00 -1.00  2.00  0.00  0.00  2.00 -1.00  2.00  0.00  0.00
T_1g   3.00  0.00 -1.00  1.00 -1.00  3.00  0.00 -1.00  1.00 -1.00
T_2g   3.00  0.00 -1.00 -1.00  1.00  3.00  0.00 -1.00 -1.00  1.00
A_1u   1.00  1.00  1.00  1.00  1.00 -1.00 -1.00 -1.00 -1.00 -1.00
A_2u   1.00  1.00  1.00 -1.00 -1.00 -1.00 -1.00 -1.00  1.00  1.00
E_u    2.00 -1.00  2.00  0.00  0.00 -2.00  1.00 -2.00  0.00  0.00
T_1u   3.00  0.00 -1.00  1.00 -1.00 -3.00  0.00  1.00 -1.00  1.00
T_2u   3.00  0.00 -1.00 -1.00  1.00 -3.00  0.00  1.00  1.00 -1.00

     the symmetry operations in each class and the name of the first element:

     E        1
                                                                 
     8C3     17   19   20   18   24   21   22   23
                                                                 
     3C2      2    4    3
                                                                 
     6C4      7    8   15   16   12   11
                                                                 
     6C2'     5    6   14   13   10    9
                                                                 
     i       25
                                                                 
     8S6     41   43   44   42   48   45   46   47
                                                                 
     3s_h    26   28   27
                                                                 
     6S4     31   32   39   40   36   35
                                                                 
     6s_d    29   30   38   37   34   33
                                                                 

     Band symmetry, O_h (m-3m)  point group:

     e(  1 -  1) =     -5.83686  eV     1   --> A_1g G_1   G_1+
     e(  2 -  4) =      6.14445  eV     3   --> T_2g G_25' G_5+
     e(  5 -  7) =      8.66610  eV     3   --> T_1u G_15  G_4-
     e(  8 -  8) =      9.44222  eV     1   --> A_2u G_2'  G_2-
     e(  9 - 10) =     13.84705  eV     2   --> E_u  G_12' G_3-
     e( 11 - 11) =     13.85727  eV     1   --> A_1g G_1   G_1+
     e( 12 - 12) =     17.25430  eV     1   -->   ?

 **************************************************************************

 **************************************************************************

                    xk=(  -0.04081,   0.04081,  -0.04081  )

     point group C_3v (3m)  
     there are  3 classes
     the character table:

       E     2C3   3s_v 
A_1    1.00  1.00  1.00
A_2    1.00  1.00 -1.00
E      2.00 -1.00  0.00

     the symmetry operations in each class and the name of the first element:

     E        1
                                                                 
     2C3      2    3
                                                                 
     3s_v     4    5    6
                                                                 

     Band symmetry, C_3v (3m)   point group:

     e(  1 -  1) =     -5.79307  eV     1   --> A_1  L_1       
     e(  2 -  2) =      5.67672  eV     1   --> A_1  L_1       
     e(  3 -  4) =      6.07076  eV     2   --> E    L_3       
     e(  5 -  5) =      8.72521  eV     1   --> A_1  L_1       
     e(  6 -  7) =      8.77382  eV     2   --> E    L_3       
     e(  8 -  8) =      9.76977  eV     1   --> A_1  L_1       
     e(  9 - 10) =     13.69626  eV     2   --> E    L_3       
     e( 11 - 11) =     14.05307  eV     1   --> A_1  L_1       
     e( 12 - 12) =     17.07407  eV     1   --> A_1  L_1       

 **************************************************************************

 **************************************************************************

                    xk=(  -0.08162,   0.08162,  -0.08162  )

     Band symmetry, C_3v (3m)   point group:

     e(  1 -  1) =     -5.66228  eV     1   --> A_1  L_1       
     e(  2 -  2) =      4.70825  eV     1   --> A_1  L_1       
     e(  3 -  4) =      5.88821  eV     2   --> E    L_3       
     e(  5 -  5) =      8.61961  eV     1   --> A_1  L_1       
     e(  6 -  7) =      9.04166  eV     2   --> E    L_3       
     e(  8 -  8) =     10.63013  eV     1   --> A_1  L_1       
     e(  9 - 10) =     13.39165  eV     2   --> E    L_3       
     e( 11 - 11) =     14.56477  eV     1   --> A_1  L_1       
     e( 12 - 12) =     16.71688  eV     1   --> A_1  L_1       

 **************************************************************************

 **************************************************************************

                    xk=(  -0.12242,   0.12242,  -0.12242  )

     Band symmetry, C_3v (3m)   point group:

     e(  1 -  1) =     -5.44654  eV     1   --> A_1  L_1       
     e(  2 -  2) =      3.62272  eV     1   --> A_1  L_1       
     e(  3 -  4) =      5.66438  eV     2   --> E    L_3       
     e(  5 -  5) =      8.40566  eV     1   --> A_1  L_1       
     e(  6 -  7) =      9.34889  eV     2   --> E    L_3       
     e(  8 -  8) =     11.64670  eV     1   --> A_1  L_1       
     e(  9 - 10) =     13.16900  eV     2   --> E    L_3       
     e( 11 - 11) =     15.04839  eV     1   --> A_1  L_1       
     e( 12 - 12) =     16.65656  eV     1   --> A_1  L_1       

 **************************************************************************

 **************************************************************************

                    xk=(  -0.16323,   0.16323,  -0.16323  )

     Band symmetry, C_3v (3m)   point group:

     e(  1 -  1) =     -5.15004  eV     1   --> A_1  L_1       
     e(  2 -  2) =      2.54194  eV     1   --> A_1  L_1       
     e(  3 -  4) =      5.44615  eV     2   --> E    L_3       
     e(  5 -  5) =      8.17493  eV     1   --> A_1  L_1       
     e(  6 -  7) =      9.56863  eV     2   --> E    L_3       
     e(  8 -  8) =     12.65865  eV     1   --> A_1  L_1       
     e(  9 - 10) =     13.20360  eV     2   --> E    L_3       
     e( 11 - 11) =     15.00612  eV     1   --> A_1  L_1       
     e( 12 - 12) =     17.42728  eV     1   --> A_1  L_1       

 **************************************************************************

 **************************************************************************

                    xk=(  -0.20404,   0.20404,  -0.20404  )

     Band symmetry, C_3v (3m)   point group:

     e(  1 -  1) =     -4.78109  eV     1   --> A_1  L_1       
     e(  2 -  2) =      1.51607  eV     1   --> A_1  L_1       
     e(  3 -  4) =      5.25751  eV     2   --> E    L_3       
     e(  5 -  5) =      7.96684  eV     1   --> A_1  L_1       
     e(  6 -  7) =      9.63389  eV     2   --> E    L_3       
     e(  8 -  8) =     13.53700  eV     1   --> A_1  L_1       
     e(  9 - 10) =     13.57764  eV     2   --> E    L_3       
     e( 11 - 11) =     14.85498  eV     1   --> A_1  L_1       
     e( 12 - 12) =     18.64862  eV     1   --> A_1  L_1       

 **************************************************************************

 **************************************************************************

                    xk=(  -0.24485,   0.24485,  -0.24485  )

     Band symmetry, C_3v (3m)   point group:

     e(  1 -  1) =     -4.35718  eV     1   --> A_1  L_1       
     e(  2 -  2) =      0.58187  eV     1   --> A_1  L_1       
     e(  3 -  4) =      5.10951  eV     2   --> E    L_3       
     e(  5 -  5) =      7.79976  eV     1   --> A_1  L_1       
     e(  6 -  7) =      9.58379  eV     2   --> E    L_3       
     e(  8 -  8) =     13.86987  eV     1   --> A_1  L_1       
     e(  9 - 10) =     14.25605  eV     2   --> E    L_3       
     e( 11 - 11) =     15.26990  eV     1   --> A_1  L_1       
     e( 12 - 12) =     19.80370  eV     1   --> A_1  L_1       

 **************************************************************************

 **************************************************************************

                    xk=(  -0.28565,   0.28565,  -0.28565  )

     Band symmetry, C_3v (3m)   point group:

     e(  1 -  1) =     -3.91979  eV     1   --> A_1  L_1       
     e(  2 -  2) =     -0.20920  eV     1   --> A_1  L_1       
     e(  3 -  4) =      5.00697  eV     2   --> E    L_3       
     e(  5 -  5) =      7.68227  eV     1   --> A_1  L_1       
     e(  6 -  7) =      9.49941  eV     2   --> E    L_3       
     e(  8 -  8) =     13.78302  eV     1   --> A_1  L_1       
     e(  9 - 10) =     15.15313  eV     2   --> E    L_3       
     e( 11 - 11) =     16.17483  eV     1   --> A_1  L_1       
     e( 12 - 12) =     19.20217  eV     1   -->   ?

 **************************************************************************

 **************************************************************************

                    xk=(  -0.32646,   0.32646,  -0.32646  )

     Band symmetry, C_3v (3m)   point group:

     e(  1 -  1) =     -3.57405  eV     1   --> A_1  L_1       
     e(  2 -  2) =     -0.74659  eV     1   --> A_1  L_1       
     e(  3 -  4) =      4.95158  eV     2   --> E    L_3       
     e(  5 -  5) =      7.61832  eV     1   --> A_1  L_1       
     e(  6 -  7) =      9.43896  eV     2   --> E    L_3       
     e(  8 -  8) =     13.68974  eV     1   --> A_1  L_1       
     e(  9 - 10) =     16.17645  eV     2   --> E    L_3       
     e( 11 - 11) =     17.07157  eV     1   --> A_1  L_1       
     e( 12 - 12) =     17.95351  eV     1   -->   ?

 **************************************************************************

 **************************************************************************

                    xk=(  -0.36727,   0.36727,  -0.36727  )

     Band symmetry, C_3v (3m)   point group:

     e(  1 -  1) =     -3.51346  eV     1   --> A_1  L_1       
     e(  2 -  2) =     -0.83423  eV     1   --> A_1  L_1       
     e(  3 -  4) =      4.94378  eV     2   --> E    L_3       
     e(  5 -  5) =      7.60927  eV     1   --> A_1  L_1       
     e(  6 -  7) =      9.42969  eV     2   --> E    L_3       
     e(  8 -  8) =     13.67520  eV     1   --> A_1  L_1       
     e(  9 - 10) =     16.49197  eV     2   --> E    L_3       
     e( 11 - 11) =     17.27203  eV     1   --> A_1  L_1       
     e( 12 - 12) =     17.60577  eV     1   -->   ?

 **************************************************************************

 **************************************************************************

                    xk=(  -0.40808,   0.40808,  -0.40808  )

     Band symmetry, C_3v (3m)   point group:

     e(  1 -  1) =     -3.78821  eV     1   --> A_1  L_1       
     e(  2 -  2) =     -0.42164  eV     1   --> A_1  L_1       
     e(  3 -  4) =      4.98358  eV     2   --> E    L_3       
     e(  5 -  5) =      7.65535  eV     1   --> A_1  L_1       
     e(  6 -  7) =      9.47508  eV     2   --> E    L_3       
     e(  8 -  8) =     13.74608  eV     1   --> A_1  L_1       
     e(  9 - 10) =     15.48080  eV     2   --> E    L_3       
     e( 11 - 11) =     16.48822  eV     1   --> A_1  L_1       
     e( 12 - 12) =     18.78071  eV     1   -->   ?

 **************************************************************************

 **************************************************************************

                    xk=(  -0.44888,   0.44888,  -0.44888  )

     Band symmetry, C_3v (3m)   point group:

     e(  1 -  1) =     -4.21202  eV     1   --> A_1  L_1       
     e(  2 -  2) =      0.30316  eV     1   --> A_1  L_1       
     e(  3 -  4) =      5.07075  eV     2   --> E    L_3       
     e(  5 -  5) =      7.75551  eV     1   --> A_1  L_1       
     e(  6 -  7) =      9.55630  eV     2   --> E    L_3       
     e(  8 -  8) =     13.85636  eV     1   --> A_1  L_1       
     e(  9 - 10) =     14.53012  eV     2   --> E    L_3       
     e( 11 - 11) =     15.54433  eV     1   --> A_1  L_1       
     e( 12 - 12) =     20.02009  eV     1   --> A_1  L_1       

 **************************************************************************

 **************************************************************************

                    xk=(  -0.48969,   0.48969,  -0.48969  )

     Band symmetry, C_3v (3m)   point group:

     e(  1 -  1) =     -4.64687  eV     1   --> A_1  L_1       
     e(  2 -  2) =      1.19779  eV     1   --> A_1  L_1       
     e(  3 -  4) =      5.20420  eV     2   --> E    L_3       
     e(  5 -  5) =      7.90700  eV     1   --> A_1  L_1       
     e(  6 -  7) =      9.62617  eV     2   --> E    L_3       
     e(  8 -  8) =     13.72915  eV     1   --> A_1  L_1       
     e(  9 - 10) =     13.77055  eV     2   --> E    L_3       
     e( 11 - 11) =     14.90103  eV     1   --> A_1  L_1       
     e( 12 - 12) =     19.06468  eV     1   --> A_1  L_1       

 **************************************************************************

 **************************************************************************

                    xk=(  -0.53050,   0.53050,  -0.53050  )

     Band symmetry, C_3v (3m)   point group:

     e(  1 -  1) =     -5.03648  eV     1   --> A_1  L_1       
     e(  2 -  2) =      2.19779  eV     1   --> A_1  L_1       
     e(  3 -  4) =      5.38032  eV     2   --> E    L_3       
     e(  5 -  5) =      8.10303  eV     1   --> A_1  L_1       
     e(  6 -  7) =      9.60709  eV     2   --> E    L_3       
     e(  8 -  8) =     12.97308  eV     1   --> A_1  L_1       
     e(  9 - 10) =     13.28842  eV     2   --> E    L_3       
     e( 11 - 11) =     14.93662  eV     1   --> A_1  L_1       
     e( 12 - 12) =     17.80431  eV     1   --> A_1  L_1       

 **************************************************************************

 **************************************************************************

                    xk=(  -0.57131,   0.57131,  -0.57131  )

     Band symmetry, C_3v (3m)   point group:

     e(  1 -  1) =     -5.35794  eV     1   --> A_1  L_1       
     e(  2 -  2) =      3.26480  eV     1   --> A_1  L_1       
     e(  3 -  4) =      5.59071  eV     2   --> E    L_3       
     e(  5 -  5) =      8.32930  eV     1   --> A_1  L_1       
     e(  6 -  7) =      9.43593  eV     2   --> E    L_3       
     e(  8 -  8) =     11.98315  eV     1   --> A_1  L_1       
     e(  9 - 10) =     13.14572  eV     2   --> E    L_3       
     e( 11 - 11) =     15.08915  eV     1   --> A_1  L_1       
     e( 12 - 12) =     16.82073  eV     1   --> A_1  L_1       

 **************************************************************************

 **************************************************************************

                    xk=(  -0.61211,   0.61211,  -0.61211  )

     Band symmetry, C_3v (3m)   point group:

     e(  1 -  1) =     -5.60076  eV     1   --> A_1  L_1       
     e(  2 -  2) =      4.35669  eV     1   --> A_1  L_1       
     e(  3 -  4) =      5.81656  eV     2   --> E    L_3       
     e(  5 -  5) =      8.55529  eV     1   --> A_1  L_1       
     e(  6 -  7) =      9.14457  eV     2   --> E    L_3       
     e(  8 -  8) =     10.95775  eV     1   --> A_1  L_1       
     e(  9 - 10) =     13.29981  eV     2   --> E    L_3       
     e( 11 - 11) =     14.75745  eV     1   --> A_1  L_1       
     e( 12 - 12) =     16.63011  eV     1   --> A_1  L_1       

 **************************************************************************

 **************************************************************************

                    xk=(  -0.65292,   0.65292,  -0.65292  )

     Band symmetry, C_3v (3m)   point group:

     e(  1 -  1) =     -5.75971  eV     1   --> A_1  L_1       
     e(  2 -  2) =      5.38700  eV     1   --> A_1  L_1       
     e(  3 -  4) =      6.01945  eV     2   --> E    L_3       
     e(  5 -  5) =      8.71196  eV     1   --> A_1  L_1       
     e(  6 -  7) =      8.84924  eV     2   --> E    L_3       
     e(  8 -  8) =     10.01447  eV     1   --> A_1  L_1       
     e(  9 - 10) =     13.60093  eV     2   --> E    L_3       
     e( 11 - 11) =     14.19460  eV     1   --> A_1  L_1       
     e( 12 - 12) =     16.95950  eV     1   --> A_1  L_1       

 **************************************************************************

 **************************************************************************

                    xk=(  -0.69373,   0.69373,  -0.69373  )

     Band symmetry, C_3v (3m)   point group:

     e(  1 -  1) =     -5.83215  eV     1   --> A_1  L_1       
     e(  2 -  2) =      6.08712  eV     1   --> A_1  L_1       
     e(  3 -  4) =      6.13617  eV     2   --> E    L_3       
     e(  5 -  6) =      8.67822  eV     2   --> E    L_3       
     e(  7 -  7) =      8.68138  eV     1   --> A_1  L_1       
     e(  8 -  8) =      9.47534  eV     1   --> A_1  L_1       
     e(  9 - 10) =     13.82916  eV     2   --> E    L_3       
     e( 11 - 11) =     13.87886  eV     1   --> A_1  L_1       
     e( 12 - 12) =     17.23312  eV     1   --> A_1  L_1       

 **************************************************************************

 **************************************************************************

                    xk=(  -0.73454,   0.73454,  -0.73454  )

     Band symmetry, C_3v (3m)   point group:

     e(  1 -  1) =     -5.81706  eV     1   --> A_1  L_1       
     e(  2 -  2) =      5.91661  eV     1   --> A_1  L_1       
     e(  3 -  4) =      6.11018  eV     2   --> E    L_3       
     e(  5 -  5) =      8.71181  eV     1   --> A_1  L_1       
     e(  6 -  7) =      8.71611  eV     2   --> E    L_3       
     e(  8 -  8) =      9.58703  eV     1   --> A_1  L_1       
     e(  9 - 10) =     13.77477  eV     2   --> E    L_3       
     e( 11 - 11) =     13.94715  eV     1   --> A_1  L_1       
     e( 12 - 12) =     17.16822  eV     1   --> A_1  L_1       

 **************************************************************************

 **************************************************************************

                    xk=(  -0.77534,   0.77534,  -0.77534  )

     Band symmetry, C_3v (3m)   point group:

     e(  1 -  1) =     -5.71465  eV     1   --> A_1  L_1       
     e(  2 -  2) =      5.04926  eV     1   --> A_1  L_1       
     e(  3 -  4) =      5.95567  eV     2   --> E    L_3       
     e(  5 -  5) =      8.67324  eV     1   --> A_1  L_1       
     e(  6 -  7) =      8.94306  eV     2   --> E    L_3       
     e(  8 -  8) =     10.31658  eV     1   --> A_1  L_1       
     e(  9 - 10) =     13.49295  eV     2   --> E    L_3       
     e( 11 - 11) =     14.37442  eV     1   --> A_1  L_1       
     e( 12 - 12) =     16.83117  eV     1   --> A_1  L_1       

 **************************************************************************

 **************************************************************************

                    xk=(  -0.81615,   0.81615,  -0.81615  )

     Band symmetry, C_3v (3m)   point group:

     e(  1 -  1) =     -5.52643  eV     1   --> A_1  L_1       
     e(  2 -  2) =      3.98159  eV     1   --> A_1  L_1       
     e(  3 -  4) =      5.73894  eV     2   --> E    L_3       
     e(  5 -  5) =      8.48058  eV     1   --> A_1  L_1       
     e(  6 -  7) =      9.25206  eV     2   --> E    L_3       
     e(  8 -  8) =     11.30941  eV     1   --> A_1  L_1       
     e(  9 - 10) =     13.22084  eV     2   --> E    L_3       
     e( 11 - 11) =     14.93497  eV     1   --> A_1  L_1       
     e( 12 - 12) =     16.59799  eV     1   --> A_1  L_1       

 **************************************************************************

 **************************************************************************

                    xk=(  -0.83655,   0.79575,  -0.79575  )

     point group C_s (m)    
     there are  2 classes
     the character table:

       E     s    
A'     1.00  1.00
A''    1.00 -1.00

     the symmetry operations in each class and the name of the first element:

     E        1
                                                                 
     s        2
                                                                 

     Band symmetry, C_s (m)     point group:

     e(  1 -  1) =     -5.55395  eV     1   --> A'             
     e(  2 -  2) =      4.15731  eV     1   --> A'             
     e(  3 -  3) =      5.63736  eV     1   --> A''            
     e(  4 -  4) =      5.81654  eV     1   --> A'             
     e(  5 -  5) =      8.57936  eV     1   --> A'             
     e(  6 -  6) =      9.04532  eV     1   --> A'             
     e(  7 -  7) =      9.37387  eV     1   --> A''            
     e(  8 -  8) =     11.14299  eV     1   --> A'             
     e(  9 -  9) =     13.03070  eV     1   --> A'             
     e( 10 - 10) =     13.47932  eV     1   --> A''            
     e( 11 - 11) =     14.89665  eV     1   --> A'             
     e( 12 - 12) =     16.65992  eV     1   --> A'             

 **************************************************************************

 **************************************************************************

                    xk=(  -0.85696,   0.77534,  -0.77534  )

     Band symmetry, C_s (m)     point group:

     e(  1 -  1) =     -5.55971  eV     1   --> A'             
     e(  2 -  2) =      4.31360  eV     1   --> A'             
     e(  3 -  3) =      5.51434  eV     1   --> A''            
     e(  4 -  4) =      5.73535  eV     1   --> A'             
     e(  5 -  5) =      8.57955  eV     1   --> A'             
     e(  6 -  6) =      9.04867  eV     1   --> A'             
     e(  7 -  7) =      9.53864  eV     1   --> A''            
     e(  8 -  8) =     10.98481  eV     1   --> A'             
     e(  9 -  9) =     12.84833  eV     1   --> A'             
     e( 10 - 10) =     13.73104  eV     1   --> A''            
     e( 11 - 11) =     14.92259  eV     1   --> A'             
     e( 12 - 12) =     16.85201  eV     1   --> A'             

 **************************************************************************

 **************************************************************************

                    xk=(  -0.87736,   0.75494,  -0.75494  )

     Band symmetry, C_s (m)     point group:

     e(  1 -  1) =     -5.54369  eV     1   --> A'             
     e(  2 -  2) =      4.43345  eV     1   --> A'             
     e(  3 -  3) =      5.37893  eV     1   --> A''            
     e(  4 -  4) =      5.54451  eV     1   --> A'             
     e(  5 -  5) =      8.33888  eV     1   --> A'             
     e(  6 -  6) =      9.38642  eV     1   --> A'             
     e(  7 -  7) =      9.73547  eV     1   --> A''            
     e(  8 -  8) =     10.82632  eV     1   --> A'             
     e(  9 -  9) =     12.69148  eV     1   --> A'             
     e( 10 - 10) =     13.95875  eV     1   --> A''            
     e( 11 - 11) =     15.01004  eV     1   --> A'             
     e( 12 - 12) =     17.15382  eV     1   --> A'             

 **************************************************************************

 **************************************************************************

                    xk=(  -0.89777,   0.73454,  -0.73454  )

     Band symmetry, C_s (m)     point group:

     e(  1 -  1) =     -5.50595  eV     1   --> A'             
     e(  2 -  2) =      4.48107  eV     1   --> A'             
     e(  3 -  3) =      5.23886  eV     1   --> A''            
     e(  4 -  4) =      5.30784  eV     1   --> A'             
     e(  5 -  5) =      8.09521  eV     1   --> A'             
     e(  6 -  6) =      9.79291  eV     1   --> A'             
     e(  7 -  7) =      9.95336  eV     1   --> A''            
     e(  8 -  8) =     10.66311  eV     1   --> A'             
     e(  9 -  9) =     12.58585  eV     1   --> A'             
     e( 10 - 10) =     14.14417  eV     1   --> A''            
     e( 11 - 11) =     15.16103  eV     1   --> A'             
     e( 12 - 12) =     17.53141  eV     1   --> A'             

 **************************************************************************

 **************************************************************************

                    xk=(  -0.91817,   0.71413,  -0.71413  )

     Band symmetry, C_s (m)     point group:

     e(  1 -  1) =     -5.44661  eV     1   --> A'             
     e(  2 -  2) =      4.38914  eV     1   --> A'             
     e(  3 -  3) =      5.10019  eV     1   --> A''            
     e(  4 -  4) =      5.10449  eV     1   --> A'             
     e(  5 -  5) =      7.91353  eV     1   --> A'             
     e(  6 -  6) =     10.16353  eV     1   --> A'             
     e(  7 -  7) =     10.18098  eV     1   --> A''            
     e(  8 -  8) =     10.50536  eV     1   --> A'             
     e(  9 -  9) =     12.56708  eV     1   --> A'             
     e( 10 - 10) =     14.27511  eV     1   --> A''            
     e( 11 - 11) =     15.37387  eV     1   --> A'             
     e( 12 - 12) =     17.90250  eV     1   --> A'             

 **************************************************************************

 **************************************************************************

                    xk=(  -0.93857,   0.69373,  -0.69373  )

     Band symmetry, C_s (m)     point group:

     e(  1 -  1) =     -5.36588  eV     1   --> A'             
     e(  2 -  2) =      4.12025  eV     1   --> A'             
     e(  3 -  3) =      4.96733  eV     1   --> A''            
     e(  4 -  4) =      4.97756  eV     1   --> A'             
     e(  5 -  5) =      7.81716  eV     1   --> A'             
     e(  6 -  6) =     10.29082  eV     1   --> A'             
     e(  7 -  7) =     10.40603  eV     1   --> A''            
     e(  8 -  8) =     10.50262  eV     1   --> A'             
     e(  9 -  9) =     12.67964  eV     1   --> A'             
     e( 10 - 10) =     14.35528  eV     1   --> A''            
     e( 11 - 11) =     15.63853  eV     1   --> A'             
     e( 12 - 12) =     17.97328  eV     1   --> A'             

 **************************************************************************

 **************************************************************************

                    xk=(  -0.95898,   0.67332,  -0.67332  )

     Band symmetry, C_s (m)     point group:

     e(  1 -  1) =     -5.26407  eV     1   --> A'             
     e(  2 -  2) =      3.73682  eV     1   --> A'             
     e(  3 -  3) =      4.84368  eV     1   --> A''            
     e(  4 -  4) =      4.87564  eV     1   --> A'             
     e(  5 -  5) =      7.80678  eV     1   --> A'             
     e(  6 -  6) =     10.16916  eV     1   --> A'             
     e(  7 -  7) =     10.61457  eV     1   --> A''            
     e(  8 -  8) =     10.63694  eV     1   --> A'             
     e(  9 -  9) =     12.94771  eV     1   --> A'             
     e( 10 - 10) =     14.40699  eV     1   --> A''            
     e( 11 - 11) =     15.93101  eV     1   --> A'             
     e( 12 - 12) =     17.83928  eV     1   --> A'             

 **************************************************************************

 **************************************************************************

                    xk=(  -0.97938,   0.65292,  -0.65292  )

     Band symmetry, C_s (m)     point group:

     e(  1 -  1) =     -5.14164  eV     1   --> A'             
     e(  2 -  2) =      3.29946  eV     1   --> A'             
     e(  3 -  3) =      4.73161  eV     1   --> A''            
     e(  4 -  4) =      4.75828  eV     1   --> A'             
     e(  5 -  5) =      7.86318  eV     1   --> A'             
     e(  6 -  6) =     10.06792  eV     1   --> A'             
     e(  7 -  7) =     10.67416  eV     1   --> A'             
     e(  8 -  8) =     10.79177  eV     1   --> A''            
     e(  9 -  9) =     13.34549  eV     1   --> A'             
     e( 10 - 10) =     14.46366  eV     1   --> A''            
     e( 11 - 11) =     16.19885  eV     1   --> A'             
     e( 12 - 12) =     17.75602  eV     1   --> A'             

 **************************************************************************

 **************************************************************************

                    xk=(  -0.99978,   0.63252,  -0.63252  )

     Band symmetry, C_s (m)     point group:

     e(  1 -  1) =     -4.99920  eV     1   --> A'             
     e(  2 -  2) =      2.83736  eV     1   --> A'             
     e(  3 -  3) =      4.62066  eV     1   --> A'             
     e(  4 -  4) =      4.63284  eV     1   --> A''            
     e(  5 -  5) =      7.95444  eV     1   --> A'             
     e(  6 -  6) =     10.02071  eV     1   --> A'             
     e(  7 -  7) =     10.64608  eV     1   --> A'             
     e(  8 -  8) =     10.92355  eV     1   --> A''            
     e(  9 -  9) =     13.82305  eV     1   --> A'             
     e( 10 - 10) =     14.55820  eV     1   --> A''            
     e( 11 - 11) =     16.35351  eV     1   --> A'             
     e( 12 - 12) =     17.84265  eV     1   --> A'             

 **************************************************************************

 **************************************************************************

                    xk=(  -1.02019,   0.61211,  -0.61211  )

     Band symmetry, C_s (m)     point group:

     e(  1 -  1) =     -4.83762  eV     1   --> A'             
     e(  2 -  2) =      2.36611  eV     1   --> A'             
     e(  3 -  3) =      4.46984  eV     1   --> A'             
     e(  4 -  4) =      4.54860  eV     1   --> A''            
     e(  5 -  5) =      8.04624  eV     1   --> A'             
     e(  6 -  6) =     10.04526  eV     1   --> A'             
     e(  7 -  7) =     10.59219  eV     1   --> A'             
     e(  8 -  8) =     11.00114  eV     1   --> A''            
     e(  9 -  9) =     14.34120  eV     1   --> A'             
     e( 10 - 10) =     14.71480  eV     1   --> A''            
     e( 11 - 11) =     16.35109  eV     1   --> A'             
     e( 12 - 12) =     18.14306  eV     1   --> A'             

 **************************************************************************

 **************************************************************************

                    xk=(  -1.04059,   0.59171,  -0.59171  )

     Band symmetry, C_s (m)     point group:

     e(  1 -  1) =     -4.65813  eV     1   --> A'             
     e(  2 -  2) =      1.89586  eV     1   --> A'             
     e(  3 -  3) =      4.31383  eV     1   --> A'             
     e(  4 -  4) =      4.47981  eV     1   --> A''            
     e(  5 -  5) =      8.11314  eV     1   --> A'             
     e(  6 -  6) =     10.13621  eV     1   --> A'             
     e(  7 -  7) =     10.55398  eV     1   --> A'             
     e(  8 -  8) =     11.02406  eV     1   --> A''            
     e(  9 -  9) =     14.87555  eV     1   --> A'             
     e( 10 - 10) =     14.94452  eV     1   --> A''            
     e( 11 - 11) =     16.25233  eV     1   --> A'             
     e( 12 - 12) =     18.58306  eV     1   --> A'             

 **************************************************************************

 **************************************************************************

                    xk=(  -1.06100,   0.57131,  -0.57131  )

     Band symmetry, C_s (m)     point group:

     e(  1 -  1) =     -4.46250  eV     1   --> A'             
     e(  2 -  2) =      1.43442  eV     1   --> A'             
     e(  3 -  3) =      4.15886  eV     1   --> A'             
     e(  4 -  4) =      4.42704  eV     1   --> A''            
     e(  5 -  5) =      8.14720  eV     1   --> A'             
     e(  6 -  6) =     10.21558  eV     1   --> A'             
     e(  7 -  7) =     10.62096  eV     1   --> A'             
     e(  8 -  8) =     11.00008  eV     1   --> A''            
     e(  9 -  9) =     15.24663  eV     1   --> A''            
     e( 10 - 10) =     15.40207  eV     1   --> A'             
     e( 11 - 11) =     16.13280  eV     1   --> A'             
     e( 12 - 12) =     19.05442  eV     1   --> A'             

 **************************************************************************

 **************************************************************************

                    xk=(  -1.08140,   0.55090,  -0.55090  )

     Band symmetry, C_s (m)     point group:

     e(  1 -  1) =     -4.25339  eV     1   --> A'             
     e(  2 -  2) =      0.98862  eV     1   --> A'             
     e(  3 -  3) =      4.00932  eV     1   --> A'             
     e(  4 -  4) =      4.39060  eV     1   --> A''            
     e(  5 -  5) =      8.15567  eV     1   --> A'             
     e(  6 -  6) =     10.20261  eV     1   --> A'             
     e(  7 -  7) =     10.86724  eV     1   --> A'             
     e(  8 -  8) =     10.94115  eV     1   --> A''            
     e(  9 -  9) =     15.61249  eV     1   --> A''            
     e( 10 - 10) =     15.77684  eV     1   --> A'             
     e( 11 - 11) =     16.16062  eV     1   --> A'             
     e( 12 - 12) =     19.39574  eV     1   --> A'             

 **************************************************************************

 **************************************************************************

                    xk=(  -1.10180,   0.53050,  -0.53050  )

     Band symmetry, C_s (m)     point group:

     e(  1 -  1) =     -4.03486  eV     1   --> A'             
     e(  2 -  2) =      0.56553  eV     1   --> A'             
     e(  3 -  3) =      3.86832  eV     1   --> A'             
     e(  4 -  4) =      4.37067  eV     1   --> A''            
     e(  5 -  5) =      8.15158  eV     1   --> A'             
     e(  6 -  6) =     10.15019  eV     1   --> A'             
     e(  7 -  7) =     10.86001  eV     1   --> A''            
     e(  8 -  8) =     11.22635  eV     1   --> A'             
     e(  9 -  9) =     15.73626  eV     1   --> A'             
     e( 10 - 10) =     16.03030  eV     1   --> A''            
     e( 11 - 11) =     16.60653  eV     1   --> A'             
     e( 12 - 12) =     18.85629  eV     1   --> A''            

 **************************************************************************

 **************************************************************************

                    xk=(  -1.12221,   0.51009,  -0.51009  )

     Band symmetry, C_s (m)     point group:

     e(  1 -  1) =     -3.81339  eV     1   --> A'             
     e(  2 -  2) =      0.17382  eV     1   --> A'             
     e(  3 -  3) =      3.73807  eV     1   --> A'             
     e(  4 -  4) =      4.36726  eV     1   --> A''            
     e(  5 -  5) =      8.14621  eV     1   --> A'             
     e(  6 -  6) =     10.09362  eV     1   --> A'             
     e(  7 -  7) =     10.76739  eV     1   --> A''            
     e(  8 -  8) =     11.64976  eV     1   --> A'             
     e(  9 -  9) =     15.61263  eV     1   --> A'             
     e( 10 - 10) =     16.48214  eV     1   --> A''            
     e( 11 - 11) =     17.13160  eV     1   --> A'             
     e( 12 - 12) =     18.23593  eV     1   --> A''            

 **************************************************************************

 **************************************************************************

                    xk=(  -1.14261,   0.48969,  -0.48969  )

     Band symmetry, C_s (m)     point group:

     e(  1 -  1) =     -3.59962  eV     1   --> A'             
     e(  2 -  2) =     -0.17431  eV     1   --> A'             
     e(  3 -  3) =      3.62022  eV     1   --> A'             
     e(  4 -  4) =      4.38017  eV     1   --> A''            
     e(  5 -  5) =      8.14755  eV     1   --> A'             
     e(  6 -  6) =     10.04334  eV     1   --> A'             
     e(  7 -  7) =     10.67150  eV     1   --> A''            
     e(  8 -  8) =     12.11636  eV     1   --> A'             
     e(  9 -  9) =     15.47992  eV     1   --> A'             
     e( 10 - 10) =     16.89679  eV     1   --> A''            
     e( 11 - 11) =     17.61698  eV     1   --> A'             
     e( 12 - 12) =     17.67937  eV     1   --> A''            

 **************************************************************************

 **************************************************************************

                    xk=(  -1.16302,   0.46929,  -0.46929  )

     Band symmetry, C_s (m)     point group:

     e(  1 -  1) =     -3.41085  eV     1   --> A'             
     e(  2 -  2) =     -0.46044  eV     1   --> A'             
     e(  3 -  3) =      3.51617  eV     1   --> A'             
     e(  4 -  4) =      4.40919  eV     1   --> A''            
     e(  5 -  5) =      8.16049  eV     1   --> A'             
     e(  6 -  6) =     10.00355  eV     1   --> A'             
     e(  7 -  7) =     10.57846  eV     1   --> A''            
     e(  8 -  8) =     12.61323  eV     1   --> A'             
     e(  9 -  9) =     15.33599  eV     1   --> A'             
     e( 10 - 10) =     16.75428  eV     1   --> A''            
     e( 11 - 11) =     17.72094  eV     1   --> A''            
     e( 12 - 12) =     17.78626  eV     1   --> A'             

 **************************************************************************

 **************************************************************************

                    xk=(  -1.18342,   0.44888,  -0.44888  )

     Band symmetry, C_s (m)     point group:

     e(  1 -  1) =     -3.27307  eV     1   --> A'             
     e(  2 -  2) =     -0.65788  eV     1   --> A'             
     e(  3 -  3) =      3.42702  eV     1   --> A'             
     e(  4 -  4) =      4.45388  eV     1   --> A''            
     e(  5 -  5) =      8.18763  eV     1   --> A'             
     e(  6 -  6) =      9.97607  eV     1   --> A'             
     e(  7 -  7) =     10.49219  eV     1   --> A''            
     e(  8 -  8) =     13.12913  eV     1   --> A'             
     e(  9 -  9) =     15.16412  eV     1   --> A'             
     e( 10 - 10) =     16.18712  eV     1   --> A''            
     e( 11 - 11) =     17.51445  eV     1   --> A'             
     e( 12 - 12) =     18.23284  eV     1   --> A''            

 **************************************************************************

 **************************************************************************

                    xk=(  -1.20382,   0.42848,  -0.42848  )

     Band symmetry, C_s (m)     point group:

     e(  1 -  1) =     -3.21626  eV     1   --> A'             
     e(  2 -  2) =     -0.73625  eV     1   --> A'             
     e(  3 -  3) =      3.35371  eV     1   --> A'             
     e(  4 -  4) =      4.51367  eV     1   --> A''            
     e(  5 -  5) =      8.23016  eV     1   --> A'             
     e(  6 -  6) =      9.96204  eV     1   --> A'             
     e(  7 -  7) =     10.41508  eV     1   --> A''            
     e(  8 -  8) =     13.65102  eV     1   --> A'             
     e(  9 -  9) =     14.94143  eV     1   --> A'             
     e( 10 - 10) =     15.59407  eV     1   --> A''            
     e( 11 - 11) =     17.23386  eV     1   --> A'             
     e( 12 - 12) =     18.81824  eV     1   --> A''            

 **************************************************************************

 **************************************************************************

                    xk=(  -1.22423,   0.40808,  -0.40808  )

     Band symmetry, C_s (m)     point group:

     e(  1 -  1) =     -3.25673  eV     1   --> A'             
     e(  2 -  2) =     -0.67913  eV     1   --> A'             
     e(  3 -  3) =      3.29723  eV     1   --> A'             
     e(  4 -  4) =      4.58783  eV     1   --> A''            
     e(  5 -  5) =      8.28816  eV     1   --> A'             
     e(  6 -  6) =      9.96198  eV     1   --> A'             
     e(  7 -  7) =     10.34811  eV     1   --> A''            
     e(  8 -  8) =     14.15185  eV     1   --> A'             
     e(  9 -  9) =     14.66144  eV     1   --> A'             
     e( 10 - 10) =     15.01807  eV     1   --> A''            
     e( 11 - 11) =     17.07023  eV     1   --> A'             
     e( 12 - 12) =     19.43490  eV     1   --> A''            

 **************************************************************************

 **************************************************************************

                    xk=(  -1.18342,   0.36727,  -0.40808  )

     point group C_1 (1)    
     there are  1 classes
     the character table:

       E    
A      1.00

     the symmetry operations in each class and the name of the first element:

     E        1
                                                                 

     Band symmetry, C_1 (1)     point group:

     e(  1 -  1) =     -3.38013  eV     1   --> A              
     e(  2 -  2) =     -0.73352  eV     1   --> A              
     e(  3 -  3) =      3.87749  eV     1   --> A              
     e(  4 -  4) =      4.72292  eV     1   --> A              
     e(  5 -  5) =      8.34935  eV     1   --> A              
     e(  6 -  6) =      9.40182  eV     1   --> A              
     e(  7 -  7) =     10.02039  eV     1   --> A              
     e(  8 -  8) =     14.17028  eV     1   --> A              
     e(  9 -  9) =     14.95138  eV     1   --> A              
     e( 10 - 10) =     15.58535  eV     1   --> A              
     e( 11 - 11) =     17.00190  eV     1   --> A              
     e( 12 - 12) =     18.68077  eV     1   --> A              

 **************************************************************************

 **************************************************************************

                    xk=(  -1.14261,   0.32646,  -0.40808  )

     Band symmetry, C_1 (1)     point group:

     e(  1 -  1) =     -3.44727  eV     1   --> A              
     e(  2 -  2) =     -0.76758  eV     1   --> A              
     e(  3 -  3) =      4.31380  eV     1   --> A              
     e(  4 -  4) =      4.77923  eV     1   --> A              
     e(  5 -  5) =      8.15532  eV     1   --> A              
     e(  6 -  6) =      9.30256  eV     1   --> A              
     e(  7 -  7) =      9.80109  eV     1   --> A              
     e(  8 -  8) =     13.95618  eV     1   --> A              
     e(  9 -  9) =     15.15997  eV     1   --> A              
     e( 10 - 10) =     16.31145  eV     1   --> A              
     e( 11 - 11) =     17.34007  eV     1   --> A              
     e( 12 - 12) =     17.81579  eV     1   --> A              

 **************************************************************************

 **************************************************************************

                    xk=(  -1.10180,   0.28565,  -0.40808  )

     Band symmetry, C_1 (1)     point group:

     e(  1 -  1) =     -3.45716  eV     1   --> A              
     e(  2 -  2) =     -0.77283  eV     1   --> A              
     e(  3 -  3) =      4.39204  eV     1   --> A              
     e(  4 -  4) =      4.78412  eV     1   --> A              
     e(  5 -  5) =      8.09617  eV     1   --> A              
     e(  6 -  6) =      9.32793  eV     1   --> A              
     e(  7 -  7) =      9.75180  eV     1   --> A              
     e(  8 -  8) =     13.91726  eV     1   --> A              
     e(  9 -  9) =     15.18344  eV     1   --> A              
     e( 10 - 10) =     16.52841  eV     1   --> A              
     e( 11 - 11) =     17.45632  eV     1   --> A              
     e( 12 - 12) =     17.59460  eV     1   --> A              

 **************************************************************************

 **************************************************************************

                    xk=(  -1.06100,   0.24485,  -0.40808  )

     Band symmetry, C_1 (1)     point group:

     e(  1 -  1) =     -3.40967  eV     1   --> A              
     e(  2 -  2) =     -0.74815  eV     1   --> A              
     e(  3 -  3) =      4.05364  eV     1   --> A              
     e(  4 -  4) =      4.75052  eV     1   --> A              
     e(  5 -  5) =      8.30415  eV     1   --> A              
     e(  6 -  6) =      9.31348  eV     1   --> A              
     e(  7 -  7) =      9.93730  eV     1   --> A              
     e(  8 -  8) =     14.08777  eV     1   --> A              
     e(  9 -  9) =     15.05145  eV     1   --> A              
     e( 10 - 10) =     15.82890  eV     1   --> A              
     e( 11 - 11) =     17.08646  eV     1   --> A              
     e( 12 - 12) =     18.37462  eV     1   --> A              

 **************************************************************************

 **************************************************************************

                    xk=(  -1.02019,   0.20404,  -0.40808  )

     Band symmetry, C_1 (1)     point group:

     e(  1 -  1) =     -3.30547  eV     1   --> A              
     e(  2 -  2) =     -0.69924  eV     1   --> A              
     e(  3 -  3) =      3.50288  eV     1   --> A              
     e(  4 -  4) =      4.64397  eV     1   --> A              
     e(  5 -  5) =      8.32956  eV     1   --> A              
     e(  6 -  6) =      9.74454  eV     1   --> A              
     e(  7 -  7) =     10.20826  eV     1   --> A              
     e(  8 -  8) =     14.24708  eV     1   --> A              
     e(  9 -  9) =     14.73017  eV     1   --> A              
     e( 10 - 10) =     15.17694  eV     1   --> A              
     e( 11 - 11) =     16.99130  eV     1   --> A              
     e( 12 - 12) =     19.21974  eV     1   --> A              

 **************************************************************************

 **************************************************************************

                    xk=(  -0.97938,   0.16323,  -0.40808  )

     Band symmetry, C_1 (1)     point group:

     e(  1 -  1) =     -3.14622  eV     1   --> A              
     e(  2 -  2) =     -0.64109  eV     1   --> A              
     e(  3 -  3) =      2.90933  eV     1   --> A              
     e(  4 -  4) =      4.45178  eV     1   --> A              
     e(  5 -  5) =      8.20552  eV     1   --> A              
     e(  6 -  6) =     10.27289  eV     1   --> A              
     e(  7 -  7) =     10.80801  eV     1   --> A              
     e(  8 -  8) =     13.76698  eV     1   --> A              
     e(  9 -  9) =     14.39697  eV     1   --> A              
     e( 10 - 10) =     15.00241  eV     1   --> A              
     e( 11 - 11) =     17.36655  eV     1   --> A              
     e( 12 - 12) =     19.66470  eV     1   --> A              

 **************************************************************************

 **************************************************************************

                    xk=(  -0.93857,   0.12242,  -0.40808  )

     Band symmetry, C_1 (1)     point group:

     e(  1 -  1) =     -2.93521  eV     1   --> A              
     e(  2 -  2) =     -0.60338  eV     1   --> A              
     e(  3 -  3) =      2.37703  eV     1   --> A              
     e(  4 -  4) =      4.17312  eV     1   --> A              
     e(  5 -  5) =      8.14558  eV     1   --> A              
     e(  6 -  6) =     10.58577  eV     1   --> A              
     e(  7 -  7) =     11.80925  eV     1   --> A              
     e(  8 -  8) =     13.07893  eV     1   --> A              
     e(  9 -  9) =     13.77196  eV     1   --> A              
     e( 10 - 10) =     15.24208  eV     1   --> A              
     e( 11 - 11) =     18.10615  eV     1   --> A              
     e( 12 - 12) =     19.80547  eV     1   --> A              

 **************************************************************************

 **************************************************************************

                    xk=(  -0.89777,   0.08162,  -0.40808  )

     Band symmetry, C_1 (1)     point group:

     e(  1 -  1) =     -2.67895  eV     1   --> A              
     e(  2 -  2) =     -0.63339  eV     1   --> A              
     e(  3 -  3) =      1.98831  eV     1   --> A              
     e(  4 -  4) =      3.82735  eV     1   --> A              
     e(  5 -  5) =      8.20626  eV     1   --> A              
     e(  6 -  6) =     10.88481  eV     1   --> A              
     e(  7 -  7) =     12.37726  eV     1   --> A              
     e(  8 -  8) =     12.88041  eV     1   --> A              
     e(  9 -  9) =     13.21612  eV     1   --> A              
     e( 10 - 10) =     15.48988  eV     1   --> A              
     e( 11 - 11) =     19.05542  eV     1   --> A              
     e( 12 - 12) =     19.87384  eV     1   --> A              

 **************************************************************************

 **************************************************************************

                    xk=(  -0.85696,   0.04081,  -0.40808  )

     Band symmetry, C_1 (1)     point group:

     e(  1 -  1) =     -2.39226  eV     1   --> A              
     e(  2 -  2) =     -0.77141  eV     1   --> A              
     e(  3 -  3) =      1.80554  eV     1   --> A              
     e(  4 -  4) =      3.45035  eV     1   --> A              
     e(  5 -  5) =      8.38765  eV     1   --> A              
     e(  6 -  6) =     11.13191  eV     1   --> A              
     e(  7 -  7) =     11.86716  eV     1   --> A              
     e(  8 -  8) =     12.46931  eV     1   --> A              
     e(  9 -  9) =     14.12093  eV     1   --> A              
     e( 10 - 10) =     15.75746  eV     1   --> A              
     e( 11 - 11) =     19.69259  eV     1   --> A              
     e( 12 - 12) =     20.24432  eV     1   --> A              

 **************************************************************************

 **************************************************************************

                    xk=(  -0.81615,  -0.00000,  -0.40808  )

     point group C_s (m)    
     there are  2 classes
     the character table:

       E     s    
A'     1.00  1.00
A''    1.00 -1.00

     the symmetry operations in each class and the name of the first element:

     E        1
                                                                 
     s        2
                                                                 

     Band symmetry, C_s (m)     point group:

     e(  1 -  1) =     -2.11861  eV     1   --> A''            
     e(  2 -  2) =     -0.98109  eV     1   --> A'             
     e(  3 -  3) =      1.82589  eV     1   --> A''            
     e(  4 -  4) =      3.08715  eV     1   --> A'             
     e(  5 -  5) =      8.67422  eV     1   --> A'             
     e(  6 -  6) =     10.95318  eV     1   --> A''            
     e(  7 -  7) =     11.80175  eV     1   --> A''            
     e(  8 -  8) =     11.96164  eV     1   --> A'             
     e(  9 -  9) =     15.04113  eV     1   --> A''            
     e( 10 - 10) =     16.20047  eV     1   --> A'             
     e( 11 - 11) =     19.40488  eV     1   --> A'             
     e( 12 - 12) =     20.66814  eV     1   --> A''            

 **************************************************************************

 **************************************************************************

                    xk=(  -0.77534,  -0.04081,  -0.40808  )

     point group C_1 (1)    
     there are  1 classes
     the character table:

       E    
A      1.00

     the symmetry operations in each class and the name of the first element:

     E        1
                                                                 

     Band symmetry, C_1 (1)     point group:

     e(  1 -  1) =     -2.00077  eV     1   --> A              
     e(  2 -  2) =     -1.07976  eV     1   --> A              
     e(  3 -  3) =      1.96620  eV     1   --> A              
     e(  4 -  4) =      2.80441  eV     1   --> A              
     e(  5 -  5) =      9.04708  eV     1   --> A              
     e(  6 -  6) =     10.50023  eV     1   --> A              
     e(  7 -  7) =     11.33830  eV     1   --> A              
     e(  8 -  8) =     12.28242  eV     1   --> A              
     e(  9 -  9) =     15.41879  eV     1   --> A              
     e( 10 - 10) =     16.99641  eV     1   --> A              
     e( 11 - 11) =     18.64898  eV     1   --> A              
     e( 12 - 12) =     20.32165  eV     1   --> A              

 **************************************************************************

 **************************************************************************

                    xk=(  -0.73454,  -0.08162,  -0.40808  )

     Band symmetry, C_1 (1)     point group:

     e(  1 -  1) =     -2.17651  eV     1   --> A              
     e(  2 -  2) =     -0.89869  eV     1   --> A              
     e(  3 -  3) =      2.06202  eV     1   --> A              
     e(  4 -  4) =      2.74764  eV     1   --> A              
     e(  5 -  5) =      9.47740  eV     1   --> A              
     e(  6 -  6) =     10.07377  eV     1   --> A              
     e(  7 -  7) =     10.86890  eV     1   --> A              
     e(  8 -  8) =     12.76974  eV     1   --> A              
     e(  9 -  9) =     15.35638  eV     1   --> A              
     e( 10 - 10) =     17.09174  eV     1   --> A              
     e( 11 - 11) =     18.60527  eV     1   --> A              
     e( 12 - 12) =     20.25737  eV     1   --> A              

 **************************************************************************

 **************************************************************************

                    xk=(  -0.69373,  -0.12242,  -0.40808  )

     Band symmetry, C_1 (1)     point group:

     e(  1 -  1) =     -2.48353  eV     1   --> A              
     e(  2 -  2) =     -0.60779  eV     1   --> A              
     e(  3 -  3) =      2.04751  eV     1   --> A              
     e(  4 -  4) =      2.99199  eV     1   --> A              
     e(  5 -  5) =      9.64057  eV     1   --> A              
     e(  6 -  6) =      9.95302  eV     1   --> A              
     e(  7 -  7) =     10.54329  eV     1   --> A              
     e(  8 -  8) =     13.31472  eV     1   --> A              
     e(  9 -  9) =     14.81618  eV     1   --> A              
     e( 10 - 10) =     16.52522  eV     1   --> A              
     e( 11 - 11) =     19.15243  eV     1   --> A              
     e( 12 - 12) =     20.44398  eV     1   --> A              

 **************************************************************************

 **************************************************************************

                    xk=(  -0.65292,  -0.16323,  -0.40808  )

     Band symmetry, C_1 (1)     point group:

     e(  1 -  1) =     -2.80076  eV     1   --> A              
     e(  2 -  2) =     -0.37049  eV     1   --> A              
     e(  3 -  3) =      2.12342  eV     1   --> A              
     e(  4 -  4) =      3.37101  eV     1   --> A              
     e(  5 -  5) =      9.36148  eV     1   --> A              
     e(  6 -  6) =      9.87919  eV     1   --> A              
     e(  7 -  7) =     10.80433  eV     1   --> A              
     e(  8 -  8) =     13.82572  eV     1   --> A              
     e(  9 -  9) =     13.92184  eV     1   --> A              
     e( 10 - 10) =     16.21138  eV     1   --> A              
     e( 11 - 11) =     19.02144  eV     1   --> A              
     e( 12 - 12) =     19.89699  eV     1   --> A              

 **************************************************************************

 **************************************************************************

                    xk=(  -0.61211,  -0.20404,  -0.40808  )

     Band symmetry, C_1 (1)     point group:

     e(  1 -  1) =     -3.08974  eV     1   --> A              
     e(  2 -  2) =     -0.25765  eV     1   --> A              
     e(  3 -  3) =      2.40397  eV     1   --> A              
     e(  4 -  4) =      3.78448  eV     1   --> A              
     e(  5 -  5) =      9.13443  eV     1   --> A              
     e(  6 -  6) =      9.59461  eV     1   --> A              
     e(  7 -  7) =     11.41428  eV     1   --> A              
     e(  8 -  8) =     12.74704  eV     1   --> A              
     e(  9 -  9) =     14.50205  eV     1   --> A              
     e( 10 - 10) =     15.99520  eV     1   --> A              
     e( 11 - 11) =     18.28318  eV     1   --> A              
     e( 12 - 12) =     19.58411  eV     1   --> A              

 **************************************************************************

 **************************************************************************

                    xk=(  -0.57131,  -0.24485,  -0.40808  )

     Band symmetry, C_1 (1)     point group:

[...]
                    xk=(  -0.40808,  -0.40808,  -0.40808  )

     point group C_3v (3m)  
     there are  3 classes
     the character table:

       E     2C3   3s_v 
A_1    1.00  1.00  1.00
A_2    1.00  1.00 -1.00
E      2.00 -1.00  0.00

     the symmetry operations in each class and the name of the first element:

     E        1
                                                                 
     2C3      2    3
                                                                 
     3s_v     4    5    6
                                                                 

     Band symmetry, C_3v (3m)   point group:

     e(  1 -  1) =     -3.78821  eV     1   --> A_1  L_1       
     e(  2 -  2) =     -0.42164  eV     1   --> A_1  L_1       
     e(  3 -  4) =      4.98358  eV     2   --> E    L_3       
     e(  5 -  5) =      7.65535  eV     1   --> A_1  L_1       
     e(  6 -  7) =      9.47508  eV     2   --> E    L_3       
     e(  8 -  8) =     13.74608  eV     1   --> A_1  L_1       
     e(  9 - 10) =     15.48080  eV     2   --> E    L_3       
     e( 11 - 11) =     16.48822  eV     1   --> A_1  L_1       
     e( 12 - 12) =     18.78071  eV     1   -->   ?

 **************************************************************************

 **************************************************************************

                    xk=(  -0.38767,  -0.38767,  -0.38767  )

     Band symmetry, C_3v (3m)   point group:

     e(  1 -  1) =     -3.61911  eV     1   --> A_1  L_1       
     e(  2 -  2) =     -0.68022  eV     1   --> A_1  L_1       
     e(  3 -  4) =      4.95773  eV     2   --> E    L_3       
     e(  5 -  5) =      7.62544  eV     1   --> A_1  L_1       
     e(  6 -  7) =      9.44614  eV     2   --> E    L_3       
     e(  8 -  8) =     13.70101  eV     1   --> A_1  L_1       
     e(  9 - 10) =     15.99843  eV     2   --> E    L_3       
     e( 11 - 11) =     16.93666  eV     1   --> A_1  L_1       
     e( 12 - 12) =     18.15702  eV     1   -->   ?

 **************************************************************************

 **************************************************************************

                    xk=(  -0.36727,  -0.36727,  -0.36727  )

     Band symmetry, C_3v (3m)   point group:

     e(  1 -  1) =     -3.51346  eV     1   --> A_1  L_1       
     e(  2 -  2) =     -0.83423  eV     1   --> A_1  L_1       
     e(  3 -  4) =      4.94378  eV     2   --> E    L_3       
     e(  5 -  5) =      7.60927  eV     1   --> A_1  L_1       
     e(  6 -  7) =      9.42969  eV     2   --> E    L_3       
     e(  8 -  8) =     13.67520  eV     1   --> A_1  L_1       
     e(  9 - 10) =     16.49197  eV     2   --> E    L_3       
     e( 11 - 11) =     17.27203  eV     1   --> A_1  L_1       
     e( 12 - 12) =     17.60577  eV     1   -->   ?

 **************************************************************************

 **************************************************************************

                    xk=(  -0.34686,  -0.34686,  -0.34686  )

     Band symmetry, C_3v (3m)   point group:

     e(  1 -  1) =     -3.49685  eV     1   --> A_1  L_1       
     e(  2 -  2) =     -0.85794  eV     1   --> A_1  L_1       
     e(  3 -  4) =      4.94173  eV     2   --> E    L_3       
     e(  5 -  5) =      7.60689  eV     1   --> A_1  L_1       
     e(  6 -  7) =      9.42722  eV     2   --> E    L_3       
     e(  8 -  8) =     13.67133  eV     1   --> A_1  L_1       
     e(  9 - 10) =     16.61586  eV     2   --> E    L_3       
     e( 11 - 11) =     17.33253  eV     1   --> A_1  L_1       
     e( 12 - 12) =     17.47333  eV     1   -->   ?

 **************************************************************************

 **************************************************************************

                    xk=(  -0.32646,  -0.32646,  -0.32646  )

     Band symmetry, C_3v (3m)   point group:

     e(  1 -  1) =     -3.57405  eV     1   --> A_1  L_1       
     e(  2 -  2) =     -0.74659  eV     1   --> A_1  L_1       
     e(  3 -  4) =      4.95158  eV     2   --> E    L_3       
     e(  5 -  5) =      7.61832  eV     1   --> A_1  L_1       
     e(  6 -  7) =      9.43896  eV     2   --> E    L_3       
     e(  8 -  8) =     13.68974  eV     1   --> A_1  L_1       
     e(  9 - 10) =     16.17645  eV     2   --> E    L_3       
     e( 11 - 11) =     17.07157  eV     1   --> A_1  L_1       
     e( 12 - 12) =     17.95351  eV     1   -->   ?

 **************************************************************************

 **************************************************************************

                    xk=(  -0.30606,  -0.30606,  -0.30606  )

     Band symmetry, C_3v (3m)   point group:

     e(  1 -  1) =     -3.72469  eV     1   --> A_1  L_1       
     e(  2 -  2) =     -0.52060  eV     1   --> A_1  L_1       
     e(  3 -  4) =      4.97334  eV     2   --> E    L_3       
     e(  5 -  5) =      7.64351  eV     1   --> A_1  L_1       
     e(  6 -  7) =      9.46388  eV     2   --> E    L_3       
     e(  8 -  8) =     13.72870  eV     1   --> A_1  L_1       
     e(  9 - 10) =     15.65739  eV     2   --> E    L_3       
     e( 11 - 11) =     16.64880  eV     1   --> A_1  L_1       
     e( 12 - 12) =     18.56236  eV     1   -->   ?

 **************************************************************************

 **************************************************************************

                    xk=(  -0.28565,  -0.28565,  -0.28565  )

     Band symmetry, C_3v (3m)   point group:

     e(  1 -  1) =     -3.91979  eV     1   --> A_1  L_1       
     e(  2 -  2) =     -0.20920  eV     1   --> A_1  L_1       
     e(  3 -  4) =      5.00697  eV     2   --> E    L_3       
     e(  5 -  5) =      7.68227  eV     1   --> A_1  L_1       
     e(  6 -  7) =      9.49941  eV     2   --> E    L_3       
     e(  8 -  8) =     13.78302  eV     1   --> A_1  L_1       
     e(  9 - 10) =     15.15313  eV     2   --> E    L_3       
     e( 11 - 11) =     16.17483  eV     1   --> A_1  L_1       
     e( 12 - 12) =     19.20217  eV     1   -->   ?

 **************************************************************************

 **************************************************************************

                    xk=(  -0.26525,  -0.26525,  -0.26525  )

     Band symmetry, C_3v (3m)   point group:

     e(  1 -  1) =     -4.13581  eV     1   --> A_1  L_1       
     e(  2 -  2) =      0.16366  eV     1   --> A_1  L_1       
     e(  3 -  4) =      5.05240  eV     2   --> E    L_3       
     e(  5 -  5) =      7.73449  eV     1   --> A_1  L_1       
     e(  6 -  7) =      9.54140  eV     2   --> E    L_3       
     e(  8 -  8) =     13.84048  eV     1   --> A_1  L_1       
     e(  9 - 10) =     14.68245  eV     2   --> E    L_3       
     e( 11 - 11) =     15.70042  eV     1   --> A_1  L_1       
     e( 12 - 12) =     19.84573  eV     1   -->   ?

 **************************************************************************

 **************************************************************************

                    xk=(  -0.24485,  -0.24485,  -0.24485  )

     Band symmetry, C_3v (3m)   point group:

     e(  1 -  1) =     -4.35718  eV     1   --> A_1  L_1       
     e(  2 -  2) =      0.58187  eV     1   --> A_1  L_1       
     e(  3 -  4) =      5.10951  eV     2   --> E    L_3       
     e(  5 -  5) =      7.79976  eV     1   --> A_1  L_1       
     e(  6 -  7) =      9.58379  eV     2   --> E    L_3       
     e(  8 -  8) =     13.86987  eV     1   --> A_1  L_1       
     e(  9 - 10) =     14.25605  eV     2   --> E    L_3       
     e( 11 - 11) =     15.26990  eV     1   --> A_1  L_1       
     e( 12 - 12) =     19.80370  eV     1   --> A_1  L_1       

 **************************************************************************

 **************************************************************************

                    xk=(  -0.22444,  -0.22444,  -0.22444  )

     Band symmetry, C_3v (3m)   point group:

     e(  1 -  1) =     -4.57428  eV     1   --> A_1  L_1       
     e(  2 -  2) =      1.03502  eV     1   --> A_1  L_1       
     e(  3 -  4) =      5.17805  eV     2   --> E    L_3       
     e(  5 -  5) =      7.87749  eV     1   --> A_1  L_1       
     e(  6 -  7) =      9.61808  eV     2   --> E    L_3       
     e(  8 -  8) =     13.79646  eV     1   --> A_1  L_1       
     e(  9 - 10) =     13.88403  eV     2   --> E    L_3       
     e( 11 - 11) =     14.96120  eV     1   --> A_1  L_1       
     e( 12 - 12) =     19.27524  eV     1   --> A_1  L_1       

 **************************************************************************

 **************************************************************************

                    xk=(  -0.20404,  -0.20404,  -0.20404  )

     Band symmetry, C_3v (3m)   point group:

     e(  1 -  1) =     -4.78109  eV     1   --> A_1  L_1       
     e(  2 -  2) =      1.51607  eV     1   --> A_1  L_1       
     e(  3 -  4) =      5.25751  eV     2   --> E    L_3       
     e(  5 -  5) =      7.96684  eV     1   --> A_1  L_1       
     e(  6 -  7) =      9.63389  eV     2   --> E    L_3       
     e(  8 -  8) =     13.53700  eV     1   --> A_1  L_1       
     e(  9 - 10) =     13.57764  eV     2   --> E    L_3       
     e( 11 - 11) =     14.85498  eV     1   --> A_1  L_1       
     e( 12 - 12) =     18.64862  eV     1   --> A_1  L_1       

 **************************************************************************

 **************************************************************************

                    xk=(  -0.18363,  -0.18363,  -0.18363  )

     Band symmetry, C_3v (3m)   point group:

     e(  1 -  1) =     -4.97385  eV     1   --> A_1  L_1       
     e(  2 -  2) =      2.01983  eV     1   --> A_1  L_1       
     e(  3 -  4) =      5.34723  eV     2   --> E    L_3       
     e(  5 -  5) =      8.06659  eV     1   --> A_1  L_1       
     e(  6 -  7) =      9.62030  eV     2   --> E    L_3       
     e(  8 -  8) =     13.13093  eV     1   --> A_1  L_1       
     e(  9 - 10) =     13.34803  eV     2   --> E    L_3       
     e( 11 - 11) =     14.90314  eV     1   --> A_1  L_1       
     e( 12 - 12) =     18.01432  eV     1   --> A_1  L_1       

 **************************************************************************

 **************************************************************************

                    xk=(  -0.16323,  -0.16323,  -0.16323  )

     Band symmetry, C_3v (3m)   point group:

     e(  1 -  1) =     -5.15004  eV     1   --> A_1  L_1       
     e(  2 -  2) =      2.54194  eV     1   --> A_1  L_1       
     e(  3 -  4) =      5.44615  eV     2   --> E    L_3       
     e(  5 -  5) =      8.17493  eV     1   --> A_1  L_1       
     e(  6 -  7) =      9.56863  eV     2   --> E    L_3       
     e(  8 -  8) =     12.65865  eV     1   --> A_1  L_1       
     e(  9 - 10) =     13.20360  eV     2   --> E    L_3       
     e( 11 - 11) =     15.00612  eV     1   --> A_1  L_1       
     e( 12 - 12) =     17.42728  eV     1   --> A_1  L_1       

 **************************************************************************

 **************************************************************************

                    xk=(  -0.14283,  -0.14283,  -0.14283  )

     Band symmetry, C_3v (3m)   point group:

     e(  1 -  1) =     -5.30800  eV     1   --> A_1  L_1       
     e(  2 -  2) =      3.07791  eV     1   --> A_1  L_1       
     e(  3 -  4) =      5.55266  eV     2   --> E    L_3       
     e(  5 -  5) =      8.28921  eV     1   --> A_1  L_1       
     e(  6 -  7) =      9.47634  eV     2   --> E    L_3       
     e(  8 -  8) =     12.15860  eV     1   --> A_1  L_1       
     e(  9 - 10) =     13.14624  eV     2   --> E    L_3       
     e( 11 - 11) =     15.08403  eV     1   --> A_1  L_1       
     e( 12 - 12) =     16.94665  eV     1   --> A_1  L_1       

 **************************************************************************

 **************************************************************************

                    xk=(  -0.12242,  -0.12242,  -0.12242  )

     Band symmetry, C_3v (3m)   point group:

     e(  1 -  1) =     -5.44654  eV     1   --> A_1  L_1       
     e(  2 -  2) =      3.62272  eV     1   --> A_1  L_1       
     e(  3 -  4) =      5.66438  eV     2   --> E    L_3       
     e(  5 -  5) =      8.40566  eV     1   --> A_1  L_1       
     e(  6 -  7) =      9.34889  eV     2   --> E    L_3       
     e(  8 -  8) =     11.64670  eV     1   --> A_1  L_1       
     e(  9 - 10) =     13.16900  eV     2   --> E    L_3       
     e( 11 - 11) =     15.04839  eV     1   --> A_1  L_1       
     e( 12 - 12) =     16.65656  eV     1   --> A_1  L_1       

 **************************************************************************

 **************************************************************************

                    xk=(  -0.10202,  -0.10202,  -0.10202  )

     Band symmetry, C_3v (3m)   point group:

     e(  1 -  1) =     -5.56483  eV     1   --> A_1  L_1       
     e(  2 -  2) =      4.16957  eV     1   --> A_1  L_1       
     e(  3 -  4) =      5.77792  eV     2   --> E    L_3       
     e(  5 -  5) =      8.51863  eV     1   --> A_1  L_1       
     e(  6 -  7) =      9.19873  eV     2   --> E    L_3       
     e(  8 -  8) =     11.13300  eV     1   --> A_1  L_1       
     e(  9 - 10) =     13.25750  eV     2   --> E    L_3       
     e( 11 - 11) =     14.85155  eV     1   --> A_1  L_1       
     e( 12 - 12) =     16.60426  eV     1   --> A_1  L_1       

 **************************************************************************

 **************************************************************************

                    xk=(  -0.08162,  -0.08162,  -0.08162  )

     Band symmetry, C_3v (3m)   point group:

     e(  1 -  1) =     -5.66228  eV     1   --> A_1  L_1       
     e(  2 -  2) =      4.70825  eV     1   --> A_1  L_1       
     e(  3 -  4) =      5.88821  eV     2   --> E    L_3       
     e(  5 -  5) =      8.61961  eV     1   --> A_1  L_1       
     e(  6 -  7) =      9.04166  eV     2   --> E    L_3       
     e(  8 -  8) =     10.63013  eV     1   --> A_1  L_1       
     e(  9 - 10) =     13.39165  eV     2   --> E    L_3       
     e( 11 - 11) =     14.56477  eV     1   --> A_1  L_1       
     e( 12 - 12) =     16.71688  eV     1   --> A_1  L_1       

 **************************************************************************

 **************************************************************************

                    xk=(  -0.06121,  -0.06121,  -0.06121  )

     Band symmetry, C_3v (3m)   point group:

     e(  1 -  1) =     -5.73846  eV     1   --> A_1  L_1       
     e(  2 -  2) =      5.22143  eV     1   --> A_1  L_1       
     e(  3 -  4) =      5.98864  eV     2   --> E    L_3       
     e(  5 -  5) =      8.69530  eV     1   --> A_1  L_1       
     e(  6 -  7) =      8.89458  eV     2   --> E    L_3       
     e(  8 -  8) =     10.16105  eV     1   --> A_1  L_1       
     e(  9 - 10) =     13.54732  eV     2   --> E    L_3       
     e( 11 - 11) =     14.28110  eV     1   --> A_1  L_1       
     e( 12 - 12) =     16.89539  eV     1   --> A_1  L_1       

 **************************************************************************

 **************************************************************************

                    xk=(  -0.04081,  -0.04081,  -0.04081  )

     Band symmetry, C_3v (3m)   point group:

     e(  1 -  1) =     -5.79307  eV     1   --> A_1  L_1       
     e(  2 -  2) =      5.67672  eV     1   --> A_1  L_1       
     e(  3 -  4) =      6.07076  eV     2   --> E    L_3       
     e(  5 -  5) =      8.72521  eV     1   --> A_1  L_1       
     e(  6 -  7) =      8.77382  eV     2   --> E    L_3       
     e(  8 -  8) =      9.76977  eV     1   --> A_1  L_1       
     e(  9 - 10) =     13.69626  eV     2   --> E    L_3       
     e( 11 - 11) =     14.05307  eV     1   --> A_1  L_1       
     e( 12 - 12) =     17.07407  eV     1   --> A_1  L_1       

 **************************************************************************

 **************************************************************************

                    xk=(  -0.02040,  -0.02040,  -0.02040  )

     Band symmetry, C_3v (3m)   point group:

     e(  1 -  1) =     -5.82590  eV     1   --> A_1  L_1       
     e(  2 -  2) =      6.01427  eV     1   --> A_1  L_1       
     e(  3 -  4) =      6.12529  eV     2   --> E    L_3       
     e(  5 -  6) =      8.69407  eV     2   --> E    L_3       
     e(  7 -  7) =      8.69694  eV     1   --> A_1  L_1       
     e(  8 -  8) =      9.52078  eV     1   --> A_1  L_1       
     e(  9 - 10) =     13.80613  eV     2   --> E    L_3       
     e( 11 - 11) =     13.90729  eV     1   --> A_1  L_1       
     e( 12 - 12) =     17.20568  eV     1   --> A_1  L_1       

 **************************************************************************

 **************************************************************************

                    xk=(   0.00000,   0.00000,   0.00000  )

     point group O_h (m-3m) 
     there are 10 classes
     the character table:

       E     8C3   3C2   6C4   6C2'  i     8S6   3s_h  6S4   6s_d 
A_1g   1.00  1.00  1.00  1.00  1.00  1.00  1.00  1.00  1.00  1.00
A_2g   1.00  1.00  1.00 -1.00 -1.00  1.00  1.00  1.00 -1.00 -1.00
E_g    2.00 -1.00  2.00  0.00  0.00  2.00 -1.00  2.00  0.00  0.00
T_1g   3.00  0.00 -1.00  1.00 -1.00  3.00  0.00 -1.00  1.00 -1.00
T_2g   3.00  0.00 -1.00 -1.00  1.00  3.00  0.00 -1.00 -1.00  1.00
A_1u   1.00  1.00  1.00  1.00  1.00 -1.00 -1.00 -1.00 -1.00 -1.00
A_2u   1.00  1.00  1.00 -1.00 -1.00 -1.00 -1.00 -1.00  1.00  1.00
E_u    2.00 -1.00  2.00  0.00  0.00 -2.00  1.00 -2.00  0.00  0.00
T_1u   3.00  0.00 -1.00  1.00 -1.00 -3.00  0.00  1.00 -1.00  1.00
T_2u   3.00  0.00 -1.00 -1.00  1.00 -3.00  0.00  1.00  1.00 -1.00

     the symmetry operations in each class and the name of the first element:

     E        1
                                                                 
     8C3     17   19   20   18   24   21   22   23
                                                                 
     3C2      2    4    3
                                                                 
     6C4      7    8   15   16   12   11
                                                                 
     6C2'     5    6   14   13   10    9
                                                                 
     i       25
                                                                 
     8S6     41   43   44   42   48   45   46   47
                                                                 
     3s_h    26   28   27
                                                                 
     6S4     31   32   39   40   36   35
                                                                 
     6s_d    29   30   38   37   34   33
                                                                 

     Band symmetry, O_h (m-3m)  point group:

     e(  1 -  1) =     -5.83686  eV     1   --> A_1g G_1   G_1+
     e(  2 -  4) =      6.14445  eV     3   --> T_2g G_25' G_5+
     e(  5 -  7) =      8.66610  eV     3   --> T_1u G_15  G_4-
     e(  8 -  8) =      9.44222  eV     1   --> A_2u G_2'  G_2-
     e(  9 - 10) =     13.84705  eV     2   --> E_u  G_12' G_3-
     e( 11 - 11) =     13.85727  eV     1   --> A_1g G_1   G_1+
     e( 12 - 12) =     17.25430  eV     1   -->   ?

 **************************************************************************

     BANDS        :     17.59s CPU     20.72s WALL


   This run was terminated on:   8:22:56  15Mar2023            

=------------------------------------------------------------------------------=
   JOB DONE.
=------------------------------------------------------------------------------=
