
     Program PWSCF v.6.4.1 starts on 15Mar2023 at  6:46:32 

     This program is part of the open-source Quantum ESPRESSO suite
     for quantum simulation of materials; please cite
         "P. Giannozzi et al., J. Phys.:Condens. Matter 21 395502 (2009);
         "P. Giannozzi et al., J. Phys.:Condens. Matter 29 465901 (2017);
          URL http://www.quantum-espresso.org", 
     in publications or presentations arising from this work. More details at
     http://www.quantum-espresso.org/quote

     Parallel version (MPI), running on     1 processors

     MPI processes distributed on     1 nodes
     Waiting for input...
     Reading input from standard input

     Current dimensions of program PWSCF are:
     Max number of different atomic species (ntypx) = 10
     Max number of k-points (npk) =  40000
     Max angular momentum in pseudopotentials (lmaxx) =  3

     Atomic positions and unit cell read from directory:
     ./Si.save/


     Subspace diagonalization in iterative solution of the eigenvalue problem:
     a serial algorithm will be used

     Message from routine setup:
     DEPRECATED: symmetry with ibrav=0, use correct ibrav instead

     G-vector sticks info
     --------------------
     sticks:   dense  smooth     PW     G-vecs:    dense   smooth      PW
     Sum         859     433    151                16889     5985    1139



     bravais-lattice index     =            0
     lattice parameter (alat)  =       7.2594  a.u.
     unit-cell volume          =     270.5148 (a.u.)^3
     number of atoms/cell      =            2
     number of atomic types    =            1
     number of electrons       =         8.00
     number of Kohn-Sham states=            8
     kinetic-energy cutoff     =      30.0000  Ry
     charge density cutoff     =     240.0000  Ry
     Exchange-correlation      = PBESOL ( 1  4 10  8 0 0)

     celldm(1)=   7.259421  celldm(2)=   0.000000  celldm(3)=   0.000000
     celldm(4)=   0.000000  celldm(5)=   0.000000  celldm(6)=   0.000000

     crystal axes: (cart. coord. in units of alat)
               a(1) = (  -0.707107  -0.707107   0.000000 )  
               a(2) = (  -0.707107   0.000000  -0.707107 )  
               a(3) = (   0.000000  -0.707107  -0.707107 )  

     reciprocal axes: (cart. coord. in units 2 pi/alat)
               b(1) = ( -0.707107 -0.707107  0.707107 )  
               b(2) = ( -0.707107  0.707107 -0.707107 )  
               b(3) = (  0.707107 -0.707107 -0.707107 )  


     PseudoPot. # 1 for Si read from file:
     ./Si.pbesol-n-rrkjus_psl.1.0.0.UPF
     MD5 check sum: c4212819de858c94c3a1644338846ac9
     Pseudo is Ultrasoft + core correction, Zval =  4.0
     Generated using "atomic" code by A. Dal Corso v.6.0 svn rev. 13079
     Using radial grid of 1141 points,  6 beta functions with: 
                l(1) =   0
                l(2) =   0
                l(3) =   1
                l(4) =   1
                l(5) =   2
                l(6) =   2
     Q(r) pseudized with 0 coefficients 


     atomic species   valence    mass     pseudopotential
        Si             4.00    28.08550     Si( 1.00)

     48 Sym. Ops., with inversion, found (24 have fractional translation)


                                    s                        frac. trans.

      isym =  1     identity                                     

 cryst.   s( 1) = (     1          0          0      )
                  (     0          1          0      )
                  (     0          0          1      )

 cart.    s( 1) = (  1.0000000  0.0000000  0.0000000 )
                  (  0.0000000  1.0000000  0.0000000 )
                  (  0.0000000  0.0000000  1.0000000 )


      isym =  2     180 deg rotation - cart. axis [0,0,1]        

 cryst.   s( 2) = (    -1          0          0      )
                  (    -1          0          1      )
                  (    -1          1          0      )

 cart.    s( 2) = ( -1.0000000  0.0000000  0.0000000 )
                  (  0.0000000 -1.0000000  0.0000000 )
                  (  0.0000000  0.0000000  1.0000000 )


      isym =  3     180 deg rotation - cart. axis [0,1,0]        

 cryst.   s( 3) = (     0         -1          1      )
                  (     0         -1          0      )
                  (     1         -1          0      )

 cart.    s( 3) = ( -1.0000000  0.0000000  0.0000000 )
                  (  0.0000000  1.0000000  0.0000000 )
                  (  0.0000000  0.0000000 -1.0000000 )


      isym =  4     180 deg rotation - cart. axis [1,0,0]        

 cryst.   s( 4) = (     0          1         -1      )
                  (     1          0         -1      )
                  (     0          0         -1      )

 cart.    s( 4) = (  1.0000000  0.0000000  0.0000000 )
                  (  0.0000000 -1.0000000  0.0000000 )
                  (  0.0000000  0.0000000 -1.0000000 )


      isym =  5     180 deg rotation - cart. axis [1,1,0]        

 cryst.   s( 5) = (     1          0          0      )    f =(  0.2500000 )
                  (     1         -1          0      )       (  0.2500000 )
                  (     1          0         -1      )       (  0.2500000 )

 cart.    s( 5) = (  0.0000000  1.0000000  0.0000000 )    f =( -0.3535534 )
                  (  1.0000000  0.0000000  0.0000000 )       ( -0.3535534 )
                  (  0.0000000  0.0000000 -1.0000000 )       ( -0.3535534 )


      isym =  6     180 deg rotation - cart. axis [1,-1,0]       

 cryst.   s( 6) = (    -1          0          0      )    f =(  0.2500000 )
                  (     0          0         -1      )       (  0.2500000 )
                  (     0         -1          0      )       (  0.2500000 )

 cart.    s( 6) = (  0.0000000 -1.0000000  0.0000000 )    f =( -0.3535534 )
                  ( -1.0000000  0.0000000  0.0000000 )       ( -0.3535534 )
                  (  0.0000000  0.0000000 -1.0000000 )       ( -0.3535534 )


      isym =  7      90 deg rotation - cart. axis [0,0,-1]       

 cryst.   s( 7) = (     0          1         -1      )    f =(  0.2500000 )
                  (    -1          1          0      )       (  0.2500000 )
                  (     0          1          0      )       (  0.2500000 )

 cart.    s( 7) = (  0.0000000  1.0000000  0.0000000 )    f =( -0.3535534 )
                  ( -1.0000000  0.0000000  0.0000000 )       ( -0.3535534 )
                  (  0.0000000  0.0000000  1.0000000 )       ( -0.3535534 )


      isym =  8      90 deg rotation - cart. axis [0,0,1]        

 cryst.   s( 8) = (     0         -1          1      )    f =(  0.2500000 )
                  (     0          0          1      )       (  0.2500000 )
                  (    -1          0          1      )       (  0.2500000 )

 cart.    s( 8) = (  0.0000000 -1.0000000  0.0000000 )    f =( -0.3535534 )
                  (  1.0000000  0.0000000  0.0000000 )       ( -0.3535534 )
                  (  0.0000000  0.0000000  1.0000000 )       ( -0.3535534 )


      isym =  9     180 deg rotation - cart. axis [1,0,1]        

 cryst.   s( 9) = (    -1          1          0      )    f =(  0.2500000 )
                  (     0          1          0      )       (  0.2500000 )
                  (     0          1         -1      )       (  0.2500000 )

 cart.    s( 9) = (  0.0000000  0.0000000  1.0000000 )    f =( -0.3535534 )
                  (  0.0000000 -1.0000000  0.0000000 )       ( -0.3535534 )
                  (  1.0000000  0.0000000  0.0000000 )       ( -0.3535534 )


      isym = 10     180 deg rotation - cart. axis [-1,0,1]       

 cryst.   s(10) = (     0          0         -1      )    f =(  0.2500000 )
                  (     0         -1          0      )       (  0.2500000 )
                  (    -1          0          0      )       (  0.2500000 )

 cart.    s(10) = (  0.0000000  0.0000000 -1.0000000 )    f =( -0.3535534 )
                  (  0.0000000 -1.0000000  0.0000000 )       ( -0.3535534 )
                  ( -1.0000000  0.0000000  0.0000000 )       ( -0.3535534 )


      isym = 11      90 deg rotation - cart. axis [0,1,0]        

 cryst.   s(11) = (     1         -1          0      )    f =(  0.2500000 )
                  (     1          0         -1      )       (  0.2500000 )
                  (     1          0          0      )       (  0.2500000 )

 cart.    s(11) = (  0.0000000  0.0000000  1.0000000 )    f =( -0.3535534 )
                  (  0.0000000  1.0000000  0.0000000 )       ( -0.3535534 )
                  ( -1.0000000  0.0000000  0.0000000 )       ( -0.3535534 )


      isym = 12      90 deg rotation - cart. axis [0,-1,0]       

 cryst.   s(12) = (     0          0          1      )    f =(  0.2500000 )
                  (    -1          0          1      )       (  0.2500000 )
                  (     0         -1          1      )       (  0.2500000 )

 cart.    s(12) = (  0.0000000  0.0000000 -1.0000000 )    f =( -0.3535534 )
                  (  0.0000000  1.0000000  0.0000000 )       ( -0.3535534 )
                  (  1.0000000  0.0000000  0.0000000 )       ( -0.3535534 )


      isym = 13     180 deg rotation - cart. axis [0,1,1]        

 cryst.   s(13) = (    -1          0          1      )    f =(  0.2500000 )
                  (     0         -1          1      )       (  0.2500000 )
                  (     0          0          1      )       (  0.2500000 )

 cart.    s(13) = ( -1.0000000  0.0000000  0.0000000 )    f =( -0.3535534 )
                  (  0.0000000  0.0000000  1.0000000 )       ( -0.3535534 )
                  (  0.0000000  1.0000000  0.0000000 )       ( -0.3535534 )


      isym = 14     180 deg rotation - cart. axis [0,1,-1]       

 cryst.   s(14) = (     0         -1          0      )    f =(  0.2500000 )
                  (    -1          0          0      )       (  0.2500000 )
                  (     0          0         -1      )       (  0.2500000 )

 cart.    s(14) = ( -1.0000000  0.0000000  0.0000000 )    f =( -0.3535534 )
                  (  0.0000000  0.0000000 -1.0000000 )       ( -0.3535534 )
                  (  0.0000000 -1.0000000  0.0000000 )       ( -0.3535534 )


      isym = 15      90 deg rotation - cart. axis [-1,0,0]       

 cryst.   s(15) = (     1          0         -1      )    f =(  0.2500000 )
                  (     1          0          0      )       (  0.2500000 )
                  (     1         -1          0      )       (  0.2500000 )

 cart.    s(15) = (  1.0000000  0.0000000  0.0000000 )    f =( -0.3535534 )
                  (  0.0000000  0.0000000  1.0000000 )       ( -0.3535534 )
                  (  0.0000000 -1.0000000  0.0000000 )       ( -0.3535534 )


      isym = 16      90 deg rotation - cart. axis [1,0,0]        

 cryst.   s(16) = (     0          1          0      )    f =(  0.2500000 )
                  (     0          1         -1      )       (  0.2500000 )
                  (    -1          1          0      )       (  0.2500000 )

 cart.    s(16) = (  1.0000000  0.0000000  0.0000000 )    f =( -0.3535534 )
                  (  0.0000000  0.0000000 -1.0000000 )       ( -0.3535534 )
                  (  0.0000000  1.0000000  0.0000000 )       ( -0.3535534 )


      isym = 17     120 deg rotation - cart. axis [-1,-1,-1]     

 cryst.   s(17) = (     0          1          0      )
                  (     0          0          1      )
                  (     1          0          0      )

 cart.    s(17) = (  0.0000000  1.0000000  0.0000000 )
                  (  0.0000000  0.0000000  1.0000000 )
                  (  1.0000000  0.0000000  0.0000000 )


      isym = 18     120 deg rotation - cart. axis [-1,1,1]       

 cryst.   s(18) = (     0         -1          0      )
                  (     1         -1          0      )
                  (     0         -1          1      )

 cart.    s(18) = (  0.0000000 -1.0000000  0.0000000 )
                  (  0.0000000  0.0000000  1.0000000 )
                  ( -1.0000000  0.0000000  0.0000000 )


      isym = 19     120 deg rotation - cart. axis [1,1,-1]       

 cryst.   s(19) = (     1          0         -1      )
                  (     0          0         -1      )
                  (     0          1         -1      )

 cart.    s(19) = (  0.0000000  1.0000000  0.0000000 )
                  (  0.0000000  0.0000000 -1.0000000 )
                  ( -1.0000000  0.0000000  0.0000000 )


      isym = 20     120 deg rotation - cart. axis [1,-1,1]       

 cryst.   s(20) = (    -1          0          1      )
                  (    -1          1          0      )
                  (    -1          0          0      )

 cart.    s(20) = (  0.0000000 -1.0000000  0.0000000 )
                  (  0.0000000  0.0000000 -1.0000000 )
                  (  1.0000000  0.0000000  0.0000000 )


      isym = 21     120 deg rotation - cart. axis [1,1,1]        

 cryst.   s(21) = (     0          0          1      )
                  (     1          0          0      )
                  (     0          1          0      )

 cart.    s(21) = (  0.0000000  0.0000000  1.0000000 )
                  (  1.0000000  0.0000000  0.0000000 )
                  (  0.0000000  1.0000000  0.0000000 )


      isym = 22     120 deg rotation - cart. axis [-1,1,-1]      

 cryst.   s(22) = (     0          0         -1      )
                  (     0          1         -1      )
                  (     1          0         -1      )

 cart.    s(22) = (  0.0000000  0.0000000  1.0000000 )
                  ( -1.0000000  0.0000000  0.0000000 )
                  (  0.0000000 -1.0000000  0.0000000 )


      isym = 23     120 deg rotation - cart. axis [1,-1,-1]      

 cryst.   s(23) = (    -1          1          0      )
                  (    -1          0          0      )
                  (    -1          0          1      )

 cart.    s(23) = (  0.0000000  0.0000000 -1.0000000 )
                  ( -1.0000000  0.0000000  0.0000000 )
                  (  0.0000000  1.0000000  0.0000000 )


      isym = 24     120 deg rotation - cart. axis [-1,-1,1]      

 cryst.   s(24) = (     1         -1          0      )
                  (     0         -1          1      )
                  (     0         -1          0      )

 cart.    s(24) = (  0.0000000  0.0000000 -1.0000000 )
                  (  1.0000000  0.0000000  0.0000000 )
                  (  0.0000000 -1.0000000  0.0000000 )


      isym = 25     inversion                                    

 cryst.   s(25) = (    -1          0          0      )    f =(  0.2500000 )
                  (     0         -1          0      )       (  0.2500000 )
                  (     0          0         -1      )       (  0.2500000 )

 cart.    s(25) = ( -1.0000000  0.0000000  0.0000000 )    f =( -0.3535534 )
                  (  0.0000000 -1.0000000  0.0000000 )       ( -0.3535534 )
                  (  0.0000000  0.0000000 -1.0000000 )       ( -0.3535534 )


      isym = 26     inv. 180 deg rotation - cart. axis [0,0,1]   

 cryst.   s(26) = (     1          0          0      )    f =(  0.2500000 )
                  (     1          0         -1      )       (  0.2500000 )
                  (     1         -1          0      )       (  0.2500000 )

 cart.    s(26) = (  1.0000000  0.0000000  0.0000000 )    f =( -0.3535534 )
                  (  0.0000000  1.0000000  0.0000000 )       ( -0.3535534 )
                  (  0.0000000  0.0000000 -1.0000000 )       ( -0.3535534 )


      isym = 27     inv. 180 deg rotation - cart. axis [0,1,0]   

 cryst.   s(27) = (     0          1         -1      )    f =(  0.2500000 )
                  (     0          1          0      )       (  0.2500000 )
                  (    -1          1          0      )       (  0.2500000 )

 cart.    s(27) = (  1.0000000  0.0000000  0.0000000 )    f =( -0.3535534 )
                  (  0.0000000 -1.0000000  0.0000000 )       ( -0.3535534 )
                  (  0.0000000  0.0000000  1.0000000 )       ( -0.3535534 )


      isym = 28     inv. 180 deg rotation - cart. axis [1,0,0]   

 cryst.   s(28) = (     0         -1          1      )    f =(  0.2500000 )
                  (    -1          0          1      )       (  0.2500000 )
                  (     0          0          1      )       (  0.2500000 )

 cart.    s(28) = ( -1.0000000  0.0000000  0.0000000 )    f =( -0.3535534 )
                  (  0.0000000  1.0000000  0.0000000 )       ( -0.3535534 )
                  (  0.0000000  0.0000000  1.0000000 )       ( -0.3535534 )


      isym = 29     inv. 180 deg rotation - cart. axis [1,1,0]   

 cryst.   s(29) = (    -1          0          0      )
                  (    -1          1          0      )
                  (    -1          0          1      )

 cart.    s(29) = (  0.0000000 -1.0000000  0.0000000 )
                  ( -1.0000000  0.0000000  0.0000000 )
                  (  0.0000000  0.0000000  1.0000000 )


      isym = 30     inv. 180 deg rotation - cart. axis [1,-1,0]  

 cryst.   s(30) = (     1          0          0      )
                  (     0          0          1      )
                  (     0          1          0      )

 cart.    s(30) = (  0.0000000  1.0000000  0.0000000 )
                  (  1.0000000  0.0000000  0.0000000 )
                  (  0.0000000  0.0000000  1.0000000 )


      isym = 31     inv.  90 deg rotation - cart. axis [0,0,-1]  

 cryst.   s(31) = (     0         -1          1      )
                  (     1         -1          0      )
                  (     0         -1          0      )

 cart.    s(31) = (  0.0000000 -1.0000000  0.0000000 )
                  (  1.0000000  0.0000000  0.0000000 )
                  (  0.0000000  0.0000000 -1.0000000 )


      isym = 32     inv.  90 deg rotation - cart. axis [0,0,1]   

 cryst.   s(32) = (     0          1         -1      )
                  (     0          0         -1      )
                  (     1          0         -1      )

 cart.    s(32) = (  0.0000000  1.0000000  0.0000000 )
                  ( -1.0000000  0.0000000  0.0000000 )
                  (  0.0000000  0.0000000 -1.0000000 )


      isym = 33     inv. 180 deg rotation - cart. axis [1,0,1]   

 cryst.   s(33) = (     1         -1          0      )
                  (     0         -1          0      )
                  (     0         -1          1      )

 cart.    s(33) = (  0.0000000  0.0000000 -1.0000000 )
                  (  0.0000000  1.0000000  0.0000000 )
                  ( -1.0000000  0.0000000  0.0000000 )


      isym = 34     inv. 180 deg rotation - cart. axis [-1,0,1]  

 cryst.   s(34) = (     0          0          1      )
                  (     0          1          0      )
                  (     1          0          0      )

 cart.    s(34) = (  0.0000000  0.0000000  1.0000000 )
                  (  0.0000000  1.0000000  0.0000000 )
                  (  1.0000000  0.0000000  0.0000000 )


      isym = 35     inv.  90 deg rotation - cart. axis [0,1,0]   

 cryst.   s(35) = (    -1          1          0      )
                  (    -1          0          1      )
                  (    -1          0          0      )

 cart.    s(35) = (  0.0000000  0.0000000 -1.0000000 )
                  (  0.0000000 -1.0000000  0.0000000 )
                  (  1.0000000  0.0000000  0.0000000 )


      isym = 36     inv.  90 deg rotation - cart. axis [0,-1,0]  

 cryst.   s(36) = (     0          0         -1      )
                  (     1          0         -1      )
                  (     0          1         -1      )

 cart.    s(36) = (  0.0000000  0.0000000  1.0000000 )
                  (  0.0000000 -1.0000000  0.0000000 )
                  ( -1.0000000  0.0000000  0.0000000 )


      isym = 37     inv. 180 deg rotation - cart. axis [0,1,1]   

 cryst.   s(37) = (     1          0         -1      )
                  (     0          1         -1      )
                  (     0          0         -1      )

 cart.    s(37) = (  1.0000000  0.0000000  0.0000000 )
                  (  0.0000000  0.0000000 -1.0000000 )
                  (  0.0000000 -1.0000000  0.0000000 )


      isym = 38     inv. 180 deg rotation - cart. axis [0,1,-1]  

 cryst.   s(38) = (     0          1          0      )
                  (     1          0          0      )
                  (     0          0          1      )

 cart.    s(38) = (  1.0000000  0.0000000  0.0000000 )
                  (  0.0000000  0.0000000  1.0000000 )
                  (  0.0000000  1.0000000  0.0000000 )


      isym = 39     inv.  90 deg rotation - cart. axis [-1,0,0]  

 cryst.   s(39) = (    -1          0          1      )
                  (    -1          0          0      )
                  (    -1          1          0      )

 cart.    s(39) = ( -1.0000000  0.0000000  0.0000000 )
                  (  0.0000000  0.0000000 -1.0000000 )
                  (  0.0000000  1.0000000  0.0000000 )


      isym = 40     inv.  90 deg rotation - cart. axis [1,0,0]   

 cryst.   s(40) = (     0         -1          0      )
                  (     0         -1          1      )
                  (     1         -1          0      )

 cart.    s(40) = ( -1.0000000  0.0000000  0.0000000 )
                  (  0.0000000  0.0000000  1.0000000 )
                  (  0.0000000 -1.0000000  0.0000000 )


      isym = 41     inv. 120 deg rotation - cart. axis [-1,-1,-1]

 cryst.   s(41) = (     0         -1          0      )    f =(  0.2500000 )
                  (     0          0         -1      )       (  0.2500000 )
                  (    -1          0          0      )       (  0.2500000 )

 cart.    s(41) = (  0.0000000 -1.0000000  0.0000000 )    f =( -0.3535534 )
                  (  0.0000000  0.0000000 -1.0000000 )       ( -0.3535534 )
                  ( -1.0000000  0.0000000  0.0000000 )       ( -0.3535534 )


      isym = 42     inv. 120 deg rotation - cart. axis [-1,1,1]  

 cryst.   s(42) = (     0          1          0      )    f =(  0.2500000 )
                  (    -1          1          0      )       (  0.2500000 )
                  (     0          1         -1      )       (  0.2500000 )

 cart.    s(42) = (  0.0000000  1.0000000  0.0000000 )    f =( -0.3535534 )
                  (  0.0000000  0.0000000 -1.0000000 )       ( -0.3535534 )
                  (  1.0000000  0.0000000  0.0000000 )       ( -0.3535534 )


      isym = 43     inv. 120 deg rotation - cart. axis [1,1,-1]  

 cryst.   s(43) = (    -1          0          1      )    f =(  0.2500000 )
                  (     0          0          1      )       (  0.2500000 )
                  (     0         -1          1      )       (  0.2500000 )

 cart.    s(43) = (  0.0000000 -1.0000000  0.0000000 )    f =( -0.3535534 )
                  (  0.0000000  0.0000000  1.0000000 )       ( -0.3535534 )
                  (  1.0000000  0.0000000  0.0000000 )       ( -0.3535534 )


      isym = 44     inv. 120 deg rotation - cart. axis [1,-1,1]  

 cryst.   s(44) = (     1          0         -1      )    f =(  0.2500000 )
                  (     1         -1          0      )       (  0.2500000 )
                  (     1          0          0      )       (  0.2500000 )

 cart.    s(44) = (  0.0000000  1.0000000  0.0000000 )    f =( -0.3535534 )
                  (  0.0000000  0.0000000  1.0000000 )       ( -0.3535534 )
                  ( -1.0000000  0.0000000  0.0000000 )       ( -0.3535534 )


      isym = 45     inv. 120 deg rotation - cart. axis [1,1,1]   

 cryst.   s(45) = (     0          0         -1      )    f =(  0.2500000 )
                  (    -1          0          0      )       (  0.2500000 )
                  (     0         -1          0      )       (  0.2500000 )

 cart.    s(45) = (  0.0000000  0.0000000 -1.0000000 )    f =( -0.3535534 )
                  ( -1.0000000  0.0000000  0.0000000 )       ( -0.3535534 )
                  (  0.0000000 -1.0000000  0.0000000 )       ( -0.3535534 )


      isym = 46     inv. 120 deg rotation - cart. axis [-1,1,-1] 

 cryst.   s(46) = (     0          0          1      )    f =(  0.2500000 )
                  (     0         -1          1      )       (  0.2500000 )
                  (    -1          0          1      )       (  0.2500000 )

 cart.    s(46) = (  0.0000000  0.0000000 -1.0000000 )    f =( -0.3535534 )
                  (  1.0000000  0.0000000  0.0000000 )       ( -0.3535534 )
                  (  0.0000000  1.0000000  0.0000000 )       ( -0.3535534 )


      isym = 47     inv. 120 deg rotation - cart. axis [1,-1,-1] 

 cryst.   s(47) = (     1         -1          0      )    f =(  0.2500000 )
                  (     1          0          0      )       (  0.2500000 )
                  (     1          0         -1      )       (  0.2500000 )

 cart.    s(47) = (  0.0000000  0.0000000  1.0000000 )    f =( -0.3535534 )
                  (  1.0000000  0.0000000  0.0000000 )       ( -0.3535534 )
                  (  0.0000000 -1.0000000  0.0000000 )       ( -0.3535534 )


      isym = 48     inv. 120 deg rotation - cart. axis [-1,-1,1] 

 cryst.   s(48) = (    -1          1          0      )    f =(  0.2500000 )
                  (     0          1         -1      )       (  0.2500000 )
                  (     0          1          0      )       (  0.2500000 )

 cart.    s(48) = (  0.0000000  0.0000000  1.0000000 )    f =( -0.3535534 )
                  ( -1.0000000  0.0000000  0.0000000 )       ( -0.3535534 )
                  (  0.0000000  1.0000000  0.0000000 )       ( -0.3535534 )


   Cartesian axes

     site n.     atom                  positions (alat units)
         1           Si  tau(   1) = (  -1.0606602  -1.0606602  -1.0606602  )
         2           Si  tau(   2) = (   0.0000000   0.0000000   0.0000000  )

   Crystallographic axes

     site n.     atom                  positions (cryst. coord.)
         1           Si  tau(   1) = (  0.7500000  0.7500000  0.7500000  )
         2           Si  tau(   2) = (  0.0000000  0.0000000  0.0000000  )

     number of k points=   120  Marzari-Vanderbilt smearing, width (Ry)=  0.0147
                       cart. coord. in units 2pi/alat
        k(    1) = (   0.0000000   0.0000000   0.0000000), wk =   0.0005926
        k(    2) = (   0.0471405  -0.0471405  -0.0471405), wk =   0.0047407
        k(    3) = (   0.0942809  -0.0942809  -0.0942809), wk =   0.0047407
        k(    4) = (   0.1414214  -0.1414214  -0.1414214), wk =   0.0047407
        k(    5) = (   0.1885618  -0.1885618  -0.1885618), wk =   0.0047407
        k(    6) = (   0.2357023  -0.2357023  -0.2357023), wk =   0.0047407
        k(    7) = (   0.2828427  -0.2828427  -0.2828427), wk =   0.0047407
        k(    8) = (   0.3299832  -0.3299832  -0.3299832), wk =   0.0047407
        k(    9) = (   0.0000000   0.0000000  -0.0942809), wk =   0.0035556
        k(   10) = (   0.0471405  -0.0471405  -0.1414214), wk =   0.0142222
        k(   11) = (   0.0942809  -0.0942809  -0.1885618), wk =   0.0142222
        k(   12) = (   0.1414214  -0.1414214  -0.2357023), wk =   0.0142222
        k(   13) = (   0.1885618  -0.1885618  -0.2828427), wk =   0.0142222
        k(   14) = (   0.2357023  -0.2357023  -0.3299832), wk =   0.0142222
        k(   15) = (   0.2828427  -0.2828427  -0.3771236), wk =   0.0142222
        k(   16) = (  -0.3771236   0.3771236   0.2828427), wk =   0.0142222
        k(   17) = (  -0.3299832   0.3299832   0.2357023), wk =   0.0142222
        k(   18) = (  -0.2828427   0.2828427   0.1885618), wk =   0.0142222
        k(   19) = (  -0.2357023   0.2357023   0.1414214), wk =   0.0142222
        k(   20) = (  -0.1885618   0.1885618   0.0942809), wk =   0.0142222
        k(   21) = (  -0.1414214   0.1414214   0.0471405), wk =   0.0142222
        k(   22) = (  -0.0942809   0.0942809  -0.0000000), wk =   0.0071111
        k(   23) = (   0.0000000   0.0000000  -0.1885618), wk =   0.0035556
        k(   24) = (   0.0471405  -0.0471405  -0.2357023), wk =   0.0142222
        k(   25) = (   0.0942809  -0.0942809  -0.2828427), wk =   0.0142222
        k(   26) = (   0.1414214  -0.1414214  -0.3299832), wk =   0.0142222
        k(   27) = (   0.1885618  -0.1885618  -0.3771236), wk =   0.0142222
        k(   28) = (   0.2357023  -0.2357023  -0.4242641), wk =   0.0142222
        k(   29) = (  -0.4242641   0.4242641   0.2357023), wk =   0.0142222
        k(   30) = (  -0.3771236   0.3771236   0.1885618), wk =   0.0142222
        k(   31) = (  -0.3299832   0.3299832   0.1414214), wk =   0.0142222
        k(   32) = (  -0.2828427   0.2828427   0.0942809), wk =   0.0142222
        k(   33) = (  -0.2357023   0.2357023   0.0471405), wk =   0.0142222
        k(   34) = (  -0.1885618   0.1885618  -0.0000000), wk =   0.0071111
        k(   35) = (   0.0000000   0.0000000  -0.2828427), wk =   0.0035556
        k(   36) = (   0.0471405  -0.0471405  -0.3299832), wk =   0.0142222
        k(   37) = (   0.0942809  -0.0942809  -0.3771236), wk =   0.0142222
        k(   38) = (   0.1414214  -0.1414214  -0.4242641), wk =   0.0142222
        k(   39) = (   0.1885618  -0.1885618  -0.4714045), wk =   0.0142222
        k(   40) = (  -0.4714045   0.4714045   0.1885618), wk =   0.0142222
        k(   41) = (  -0.4242641   0.4242641   0.1414214), wk =   0.0142222
        k(   42) = (  -0.3771236   0.3771236   0.0942809), wk =   0.0142222
        k(   43) = (  -0.3299832   0.3299832   0.0471405), wk =   0.0142222
        k(   44) = (  -0.2828427   0.2828427  -0.0000000), wk =   0.0071111
        k(   45) = (   0.0000000   0.0000000  -0.3771236), wk =   0.0035556
        k(   46) = (   0.0471405  -0.0471405  -0.4242641), wk =   0.0142222
        k(   47) = (   0.0942809  -0.0942809  -0.4714045), wk =   0.0142222
        k(   48) = (   0.1414214  -0.1414214  -0.5185450), wk =   0.0142222
        k(   49) = (  -0.5185450   0.5185450   0.1414214), wk =   0.0142222
        k(   50) = (  -0.4714045   0.4714045   0.0942809), wk =   0.0142222
        k(   51) = (  -0.4242641   0.4242641   0.0471405), wk =   0.0142222
        k(   52) = (  -0.3771236   0.3771236   0.0000000), wk =   0.0071111
        k(   53) = (   0.0000000   0.0000000  -0.4714045), wk =   0.0035556
        k(   54) = (   0.0471405  -0.0471405  -0.5185450), wk =   0.0142222
        k(   55) = (   0.0942809  -0.0942809  -0.5656854), wk =   0.0142222
        k(   56) = (  -0.5656854   0.5656854   0.0942809), wk =   0.0142222
        k(   57) = (  -0.5185450   0.5185450   0.0471405), wk =   0.0142222
        k(   58) = (  -0.4714045   0.4714045   0.0000000), wk =   0.0071111
        k(   59) = (   0.0000000   0.0000000  -0.5656854), wk =   0.0035556
        k(   60) = (   0.0471405  -0.0471405  -0.6128259), wk =   0.0142222
        k(   61) = (  -0.6128259   0.6128259   0.0471405), wk =   0.0142222
        k(   62) = (  -0.5656854   0.5656854   0.0000000), wk =   0.0071111
        k(   63) = (   0.0000000   0.0000000  -0.6599663), wk =   0.0035556
        k(   64) = (  -0.6599663   0.6599663   0.0000000), wk =   0.0071111
        k(   65) = (   0.0000000  -0.0942809  -0.1885618), wk =   0.0142222
        k(   66) = (   0.0471405  -0.1414214  -0.2357023), wk =   0.0284444
        k(   67) = (   0.0942809  -0.1885618  -0.2828427), wk =   0.0284444
        k(   68) = (   0.1414214  -0.2357023  -0.3299832), wk =   0.0284444
        k(   69) = (   0.1885618  -0.2828427  -0.3771236), wk =   0.0284444
        k(   70) = (  -0.4714045   0.3771236   0.2828427), wk =   0.0284444
        k(   71) = (  -0.0000000  -0.0942809  -0.2828427), wk =   0.0142222
        k(   72) = (   0.0471405  -0.1414214  -0.3299832), wk =   0.0284444
        k(   73) = (   0.0942809  -0.1885618  -0.3771236), wk =   0.0284444
        k(   74) = (   0.1414214  -0.2357023  -0.4242641), wk =   0.0284444
        k(   75) = (  -0.5185450   0.4242641   0.2357023), wk =   0.0284444
        k(   76) = (  -0.4714045   0.3771236   0.1885618), wk =   0.0284444
        k(   77) = (  -0.4242641   0.3299832   0.1414214), wk =   0.0284444
        k(   78) = (  -0.3771236   0.2828427   0.0942809), wk =   0.0284444
        k(   79) = (  -0.3299832   0.2357023   0.0471405), wk =   0.0284444
        k(   80) = (  -0.2828427   0.1885618  -0.0000000), wk =   0.0142222
        k(   81) = (   0.0000000  -0.0942809  -0.3771236), wk =   0.0142222
        k(   82) = (   0.0471405  -0.1414214  -0.4242641), wk =   0.0284444
        k(   83) = (   0.0942809  -0.1885618  -0.4714045), wk =   0.0284444
        k(   84) = (  -0.5656854   0.4714045   0.1885618), wk =   0.0284444
        k(   85) = (  -0.5185450   0.4242641   0.1414214), wk =   0.0284444
        k(   86) = (  -0.4714045   0.3771236   0.0942809), wk =   0.0284444
        k(   87) = (  -0.4242641   0.3299832   0.0471405), wk =   0.0284444
        k(   88) = (  -0.3771236   0.2828427  -0.0000000), wk =   0.0142222
        k(   89) = (   0.0000000  -0.0942809  -0.4714045), wk =   0.0142222
        k(   90) = (   0.0471405  -0.1414214  -0.5185450), wk =   0.0284444
        k(   91) = (  -0.6128259   0.5185450   0.1414214), wk =   0.0284444
        k(   92) = (  -0.5656854   0.4714045   0.0942809), wk =   0.0284444
        k(   93) = (  -0.5185450   0.4242641   0.0471405), wk =   0.0284444
        k(   94) = (  -0.4714045   0.3771236   0.0000000), wk =   0.0142222
        k(   95) = (   0.0000000  -0.0942809  -0.5656854), wk =   0.0142222
        k(   96) = (  -0.6599663   0.5656854   0.0942809), wk =   0.0284444
        k(   97) = (  -0.6128259   0.5185450   0.0471405), wk =   0.0284444
        k(   98) = (  -0.5656854   0.4714045   0.0000000), wk =   0.0142222
        k(   99) = (  -0.7071068   0.6128259   0.0471405), wk =   0.0142222
        k(  100) = (  -0.6599663   0.5656854   0.0000000), wk =   0.0142222
        k(  101) = (   0.0000000  -0.1885618  -0.3771236), wk =   0.0142222
        k(  102) = (   0.0471405  -0.2357023  -0.4242641), wk =   0.0284444
        k(  103) = (  -0.6128259   0.4242641   0.2357023), wk =   0.0284444
        k(  104) = (  -0.5656854   0.3771236   0.1885618), wk =   0.0284444
        k(  105) = (   0.0000000  -0.1885618  -0.4714045), wk =   0.0142222
        k(  106) = (  -0.6599663   0.4714045   0.1885618), wk =   0.0284444
        k(  107) = (  -0.6128259   0.4242641   0.1414214), wk =   0.0284444
        k(  108) = (  -0.5656854   0.3771236   0.0942809), wk =   0.0284444
        k(  109) = (  -0.5185450   0.3299832   0.0471405), wk =   0.0284444
        k(  110) = (  -0.4714045   0.2828427  -0.0000000), wk =   0.0142222
        k(  111) = (  -0.7071068   0.5185450   0.1414214), wk =   0.0142222
        k(  112) = (  -0.6599663   0.4714045   0.0942809), wk =   0.0284444
        k(  113) = (  -0.6128259   0.4242641   0.0471405), wk =   0.0284444
        k(  114) = (  -0.5656854   0.3771236   0.0000000), wk =   0.0142222
        k(  115) = (  -0.7071068   0.5185450   0.0471405), wk =   0.0142222
        k(  116) = (  -0.6599663   0.4714045   0.0000000), wk =   0.0142222
        k(  117) = (  -0.7071068   0.4242641   0.1414214), wk =   0.0142222
        k(  118) = (  -0.6599663   0.3771236   0.0942809), wk =   0.0284444
        k(  119) = (  -0.7071068   0.4242641   0.0471405), wk =   0.0142222
        k(  120) = (  -0.6599663   0.3771236   0.0000000), wk =   0.0142222

                       cryst. coord.
        k(    1) = (   0.0000000   0.0000000   0.0000000), wk =   0.0005926
        k(    2) = (   0.0000000   0.0000000   0.0666667), wk =   0.0047407
        k(    3) = (   0.0000000   0.0000000   0.1333333), wk =   0.0047407
        k(    4) = (   0.0000000   0.0000000   0.2000000), wk =   0.0047407
        k(    5) = (   0.0000000   0.0000000   0.2666667), wk =   0.0047407
        k(    6) = (   0.0000000   0.0000000   0.3333333), wk =   0.0047407
        k(    7) = (   0.0000000   0.0000000   0.4000000), wk =   0.0047407
        k(    8) = (   0.0000000   0.0000000   0.4666667), wk =   0.0047407
        k(    9) = (  -0.0000000   0.0666667   0.0666667), wk =   0.0035556
        k(   10) = (   0.0000000   0.0666667   0.1333333), wk =   0.0142222
        k(   11) = (   0.0000000   0.0666667   0.2000000), wk =   0.0142222
        k(   12) = (   0.0000000   0.0666667   0.2666667), wk =   0.0142222
        k(   13) = (   0.0000000   0.0666667   0.3333333), wk =   0.0142222
        k(   14) = (   0.0000000   0.0666667   0.4000000), wk =   0.0142222
        k(   15) = (   0.0000000   0.0666667   0.4666667), wk =   0.0142222
        k(   16) = (   0.0000000   0.0666667  -0.4666667), wk =   0.0142222
        k(   17) = (   0.0000000   0.0666667  -0.4000000), wk =   0.0142222
        k(   18) = (   0.0000000   0.0666667  -0.3333333), wk =   0.0142222
        k(   19) = (   0.0000000   0.0666667  -0.2666667), wk =   0.0142222
        k(   20) = (   0.0000000   0.0666667  -0.2000000), wk =   0.0142222
        k(   21) = (   0.0000000   0.0666667  -0.1333333), wk =   0.0142222
        k(   22) = (   0.0000000   0.0666667  -0.0666667), wk =   0.0071111
        k(   23) = (  -0.0000000   0.1333333   0.1333333), wk =   0.0035556
        k(   24) = (   0.0000000   0.1333333   0.2000000), wk =   0.0142222
        k(   25) = (   0.0000000   0.1333333   0.2666667), wk =   0.0142222
        k(   26) = (   0.0000000   0.1333333   0.3333333), wk =   0.0142222
        k(   27) = (   0.0000000   0.1333333   0.4000000), wk =   0.0142222
        k(   28) = (   0.0000000   0.1333333   0.4666667), wk =   0.0142222
        k(   29) = (   0.0000000   0.1333333  -0.4666667), wk =   0.0142222
        k(   30) = (   0.0000000   0.1333333  -0.4000000), wk =   0.0142222
        k(   31) = (   0.0000000   0.1333333  -0.3333333), wk =   0.0142222
        k(   32) = (   0.0000000   0.1333333  -0.2666667), wk =   0.0142222
        k(   33) = (   0.0000000   0.1333333  -0.2000000), wk =   0.0142222
        k(   34) = (   0.0000000   0.1333333  -0.1333333), wk =   0.0071111
        k(   35) = (  -0.0000000   0.2000000   0.2000000), wk =   0.0035556
        k(   36) = (   0.0000000   0.2000000   0.2666667), wk =   0.0142222
        k(   37) = (   0.0000000   0.2000000   0.3333333), wk =   0.0142222
        k(   38) = (   0.0000000   0.2000000   0.4000000), wk =   0.0142222
        k(   39) = (   0.0000000   0.2000000   0.4666667), wk =   0.0142222
        k(   40) = (   0.0000000   0.2000000  -0.4666667), wk =   0.0142222
        k(   41) = (   0.0000000   0.2000000  -0.4000000), wk =   0.0142222
        k(   42) = (   0.0000000   0.2000000  -0.3333333), wk =   0.0142222
        k(   43) = (   0.0000000   0.2000000  -0.2666667), wk =   0.0142222
        k(   44) = (   0.0000000   0.2000000  -0.2000000), wk =   0.0071111
        k(   45) = (  -0.0000000   0.2666667   0.2666667), wk =   0.0035556
        k(   46) = (   0.0000000   0.2666667   0.3333333), wk =   0.0142222
        k(   47) = (   0.0000000   0.2666667   0.4000000), wk =   0.0142222
        k(   48) = (   0.0000000   0.2666667   0.4666667), wk =   0.0142222
        k(   49) = (   0.0000000   0.2666667  -0.4666667), wk =   0.0142222
        k(   50) = (   0.0000000   0.2666667  -0.4000000), wk =   0.0142222
        k(   51) = (   0.0000000   0.2666667  -0.3333333), wk =   0.0142222
        k(   52) = (   0.0000000   0.2666667  -0.2666667), wk =   0.0071111
        k(   53) = (  -0.0000000   0.3333333   0.3333333), wk =   0.0035556
        k(   54) = (   0.0000000   0.3333333   0.4000000), wk =   0.0142222
        k(   55) = (   0.0000000   0.3333333   0.4666667), wk =   0.0142222
        k(   56) = (   0.0000000   0.3333333  -0.4666667), wk =   0.0142222
        k(   57) = (   0.0000000   0.3333333  -0.4000000), wk =   0.0142222
        k(   58) = (   0.0000000   0.3333333  -0.3333333), wk =   0.0071111
        k(   59) = (  -0.0000000   0.4000000   0.4000000), wk =   0.0035556
        k(   60) = (   0.0000000   0.4000000   0.4666667), wk =   0.0142222
        k(   61) = (   0.0000000   0.4000000  -0.4666667), wk =   0.0142222
        k(   62) = (   0.0000000   0.4000000  -0.4000000), wk =   0.0071111
        k(   63) = (  -0.0000000   0.4666667   0.4666667), wk =   0.0035556
        k(   64) = (   0.0000000   0.4666667  -0.4666667), wk =   0.0071111
        k(   65) = (   0.0666667   0.1333333   0.2000000), wk =   0.0142222
        k(   66) = (   0.0666667   0.1333333   0.2666667), wk =   0.0284444
        k(   67) = (   0.0666667   0.1333333   0.3333333), wk =   0.0284444
        k(   68) = (   0.0666667   0.1333333   0.4000000), wk =   0.0284444
        k(   69) = (   0.0666667   0.1333333   0.4666667), wk =   0.0284444
        k(   70) = (   0.0666667   0.1333333  -0.4666667), wk =   0.0284444
        k(   71) = (   0.0666667   0.2000000   0.2666667), wk =   0.0142222
        k(   72) = (   0.0666667   0.2000000   0.3333333), wk =   0.0284444
        k(   73) = (   0.0666667   0.2000000   0.4000000), wk =   0.0284444
        k(   74) = (   0.0666667   0.2000000   0.4666667), wk =   0.0284444
        k(   75) = (   0.0666667   0.2000000  -0.4666667), wk =   0.0284444
        k(   76) = (   0.0666667   0.2000000  -0.4000000), wk =   0.0284444
        k(   77) = (   0.0666667   0.2000000  -0.3333333), wk =   0.0284444
        k(   78) = (   0.0666667   0.2000000  -0.2666667), wk =   0.0284444
        k(   79) = (   0.0666667   0.2000000  -0.2000000), wk =   0.0284444
        k(   80) = (   0.0666667   0.2000000  -0.1333333), wk =   0.0142222
        k(   81) = (   0.0666667   0.2666667   0.3333333), wk =   0.0142222
        k(   82) = (   0.0666667   0.2666667   0.4000000), wk =   0.0284444
        k(   83) = (   0.0666667   0.2666667   0.4666667), wk =   0.0284444
        k(   84) = (   0.0666667   0.2666667  -0.4666667), wk =   0.0284444
        k(   85) = (   0.0666667   0.2666667  -0.4000000), wk =   0.0284444
        k(   86) = (   0.0666667   0.2666667  -0.3333333), wk =   0.0284444
        k(   87) = (   0.0666667   0.2666667  -0.2666667), wk =   0.0284444
        k(   88) = (   0.0666667   0.2666667  -0.2000000), wk =   0.0142222
        k(   89) = (   0.0666667   0.3333333   0.4000000), wk =   0.0142222
        k(   90) = (   0.0666667   0.3333333   0.4666667), wk =   0.0284444
        k(   91) = (   0.0666667   0.3333333  -0.4666667), wk =   0.0284444
        k(   92) = (   0.0666667   0.3333333  -0.4000000), wk =   0.0284444
        k(   93) = (   0.0666667   0.3333333  -0.3333333), wk =   0.0284444
        k(   94) = (   0.0666667   0.3333333  -0.2666667), wk =   0.0142222
        k(   95) = (   0.0666667   0.4000000   0.4666667), wk =   0.0142222
        k(   96) = (   0.0666667   0.4000000  -0.4666667), wk =   0.0284444
        k(   97) = (   0.0666667   0.4000000  -0.4000000), wk =   0.0284444
        k(   98) = (   0.0666667   0.4000000  -0.3333333), wk =   0.0142222
        k(   99) = (   0.0666667   0.4666667  -0.4666667), wk =   0.0142222
        k(  100) = (   0.0666667   0.4666667  -0.4000000), wk =   0.0142222
        k(  101) = (   0.1333333   0.2666667   0.4000000), wk =   0.0142222
        k(  102) = (   0.1333333   0.2666667   0.4666667), wk =   0.0284444
        k(  103) = (   0.1333333   0.2666667  -0.4666667), wk =   0.0284444
        k(  104) = (   0.1333333   0.2666667  -0.4000000), wk =   0.0284444
        k(  105) = (   0.1333333   0.3333333   0.4666667), wk =   0.0142222
        k(  106) = (   0.1333333   0.3333333  -0.4666667), wk =   0.0284444
        k(  107) = (   0.1333333   0.3333333  -0.4000000), wk =   0.0284444
        k(  108) = (   0.1333333   0.3333333  -0.3333333), wk =   0.0284444
        k(  109) = (   0.1333333   0.3333333  -0.2666667), wk =   0.0284444
        k(  110) = (   0.1333333   0.3333333  -0.2000000), wk =   0.0142222
        k(  111) = (   0.1333333   0.4000000  -0.4666667), wk =   0.0142222
        k(  112) = (   0.1333333   0.4000000  -0.4000000), wk =   0.0284444
        k(  113) = (   0.1333333   0.4000000  -0.3333333), wk =   0.0284444
        k(  114) = (   0.1333333   0.4000000  -0.2666667), wk =   0.0142222
        k(  115) = (   0.1333333   0.4666667  -0.4000000), wk =   0.0142222
        k(  116) = (   0.1333333   0.4666667  -0.3333333), wk =   0.0142222
        k(  117) = (   0.2000000   0.4000000  -0.4000000), wk =   0.0142222
        k(  118) = (   0.2000000   0.4000000  -0.3333333), wk =   0.0284444
        k(  119) = (   0.2000000   0.4666667  -0.3333333), wk =   0.0142222
        k(  120) = (   0.2000000   0.4666667  -0.2666667), wk =   0.0142222

     Dense  grid:    16889 G-vectors     FFT dimensions: (  36,  36,  36)

     Smooth grid:     5985 G-vectors     FFT dimensions: (  32,  32,  32)

     Dynamical RAM for                 wfc:       0.09 MB

     Dynamical RAM for     wfc (w. buffer):       0.09 MB

     Dynamical RAM for           str. fact:       0.26 MB

     Dynamical RAM for           local pot:       0.00 MB

     Dynamical RAM for          nlocal pot:       0.41 MB

     Dynamical RAM for                qrad:       1.44 MB

     Dynamical RAM for          rho,v,vnew:       1.84 MB

     Dynamical RAM for           G-vectors:       1.01 MB

     Dynamical RAM for          h,s,v(r/c):       0.05 MB

     Dynamical RAM for          <psi|beta>:       0.00 MB

     Dynamical RAM for                 psi:       0.37 MB

     Dynamical RAM for                hpsi:       0.37 MB

     Dynamical RAM for                spsi:       0.37 MB

     Dynamical RAM for      wfcinit/wfcrot:       0.18 MB

     Dynamical RAM for           addusdens:      48.45 MB

     Estimated static dynamical RAM per process >       7.35 MB

     Estimated max dynamical RAM per process >      55.80 MB

     The potential is recalculated from file :
     ./Si.save/charge-density

     Starting wfcs are    8 randomized atomic wfcs

     Band Structure Calculation
     Davidson diagonalization with overlap

     Computing kpt #:     1
     total cpu time spent up to now is        1.3 secs

     Computing kpt #:     2
     total cpu time spent up to now is        1.4 secs

     Computing kpt #:     3
     total cpu time spent up to now is        1.5 secs

     Computing kpt #:     4
     total cpu time spent up to now is        1.5 secs

     Computing kpt #:     5
     total cpu time spent up to now is        1.6 secs

     Computing kpt #:     6
     total cpu time spent up to now is        1.7 secs

     Computing kpt #:     7
     total cpu time spent up to now is        1.8 secs

     Computing kpt #:     8
     total cpu time spent up to now is        1.9 secs

     Computing kpt #:     9
     total cpu time spent up to now is        1.9 secs

     Computing kpt #:    10
     total cpu time spent up to now is        2.0 secs

     Computing kpt #:    11
     total cpu time spent up to now is        2.1 secs

     Computing kpt #:    12
     total cpu time spent up to now is        2.2 secs

     Computing kpt #:    13
     total cpu time spent up to now is        2.3 secs

     Computing kpt #:    14
     total cpu time spent up to now is        2.4 secs

     Computing kpt #:    15
     total cpu time spent up to now is        2.5 secs

     Computing kpt #:    16
     total cpu time spent up to now is        2.6 secs

     Computing kpt #:    17
     total cpu time spent up to now is        2.6 secs

     Computing kpt #:    18
     total cpu time spent up to now is        2.7 secs

     Computing kpt #:    19
     total cpu time spent up to now is        2.8 secs

     Computing kpt #:    20
     total cpu time spent up to now is        2.9 secs

     Computing kpt #:    21
     total cpu time spent up to now is        3.0 secs

     Computing kpt #:    22
     total cpu time spent up to now is        3.1 secs

     Computing kpt #:    23
     total cpu time spent up to now is        3.1 secs

     Computing kpt #:    24
     total cpu time spent up to now is        3.2 secs

     Computing kpt #:    25
     total cpu time spent up to now is        3.3 secs

     Computing kpt #:    26
     total cpu time spent up to now is        3.4 secs

     Computing kpt #:    27
     total cpu time spent up to now is        3.5 secs

     Computing kpt #:    28
     total cpu time spent up to now is        3.6 secs

     Computing kpt #:    29
     total cpu time spent up to now is        3.6 secs

     Computing kpt #:    30
     total cpu time spent up to now is        3.7 secs

     Computing kpt #:    31
     total cpu time spent up to now is        3.8 secs

     Computing kpt #:    32
     total cpu time spent up to now is        3.9 secs

     Computing kpt #:    33
     total cpu time spent up to now is        4.0 secs

     Computing kpt #:    34
     total cpu time spent up to now is        4.1 secs

     Computing kpt #:    35
     total cpu time spent up to now is        4.1 secs

     Computing kpt #:    36
     total cpu time spent up to now is        4.2 secs

     Computing kpt #:    37
     total cpu time spent up to now is        4.3 secs

     Computing kpt #:    38
     total cpu time spent up to now is        4.3 secs

     Computing kpt #:    39
     total cpu time spent up to now is        4.4 secs

     Computing kpt #:    40
     total cpu time spent up to now is        4.5 secs

     Computing kpt #:    41
     total cpu time spent up to now is        4.6 secs

     Computing kpt #:    42
     total cpu time spent up to now is        4.7 secs

     Computing kpt #:    43
     total cpu time spent up to now is        4.8 secs

     Computing kpt #:    44
     total cpu time spent up to now is        4.9 secs

     Computing kpt #:    45
     total cpu time spent up to now is        4.9 secs

     Computing kpt #:    46
     total cpu time spent up to now is        5.0 secs

     Computing kpt #:    47
     total cpu time spent up to now is        5.1 secs

     Computing kpt #:    48
     total cpu time spent up to now is        5.2 secs

     Computing kpt #:    49
     total cpu time spent up to now is        5.2 secs

     Computing kpt #:    50
     total cpu time spent up to now is        5.3 secs

     Computing kpt #:    51
     total cpu time spent up to now is        5.4 secs

     Computing kpt #:    52
     total cpu time spent up to now is        5.5 secs

     Computing kpt #:    53
     total cpu time spent up to now is        5.5 secs

     Computing kpt #:    54
     total cpu time spent up to now is        5.6 secs

     Computing kpt #:    55
     total cpu time spent up to now is        5.7 secs

     Computing kpt #:    56
     total cpu time spent up to now is        5.8 secs

     Computing kpt #:    57
     total cpu time spent up to now is        5.9 secs

     Computing kpt #:    58
     total cpu time spent up to now is        6.0 secs

     Computing kpt #:    59
     total cpu time spent up to now is        6.0 secs

     Computing kpt #:    60
     total cpu time spent up to now is        6.1 secs

     Computing kpt #:    61
     total cpu time spent up to now is        6.2 secs

     Computing kpt #:    62
     total cpu time spent up to now is        6.3 secs

     Computing kpt #:    63
     total cpu time spent up to now is        6.4 secs

     Computing kpt #:    64
     total cpu time spent up to now is        6.5 secs

     Computing kpt #:    65
     total cpu time spent up to now is        6.6 secs

     Computing kpt #:    66
     total cpu time spent up to now is        6.7 secs

     Computing kpt #:    67
     total cpu time spent up to now is        6.8 secs

     Computing kpt #:    68
     total cpu time spent up to now is        6.9 secs

     Computing kpt #:    69
     total cpu time spent up to now is        7.0 secs

     Computing kpt #:    70
     total cpu time spent up to now is        7.1 secs

     Computing kpt #:    71
     total cpu time spent up to now is        7.1 secs

     Computing kpt #:    72
     total cpu time spent up to now is        7.2 secs

     Computing kpt #:    73
     total cpu time spent up to now is        7.3 secs

     Computing kpt #:    74
     total cpu time spent up to now is        7.4 secs

     Computing kpt #:    75
     total cpu time spent up to now is        7.5 secs

     Computing kpt #:    76
     total cpu time spent up to now is        7.6 secs

     Computing kpt #:    77
     total cpu time spent up to now is        7.7 secs

     Computing kpt #:    78
     total cpu time spent up to now is        7.8 secs

     Computing kpt #:    79
     total cpu time spent up to now is        7.9 secs

     Computing kpt #:    80
     total cpu time spent up to now is        8.0 secs

     Computing kpt #:    81
     total cpu time spent up to now is        8.0 secs

     Computing kpt #:    82
     total cpu time spent up to now is        8.1 secs

     Computing kpt #:    83
     total cpu time spent up to now is        8.2 secs

     Computing kpt #:    84
     total cpu time spent up to now is        8.3 secs

     Computing kpt #:    85
     total cpu time spent up to now is        8.4 secs

     Computing kpt #:    86
     total cpu time spent up to now is        8.5 secs

     Computing kpt #:    87
     total cpu time spent up to now is        8.7 secs

     Computing kpt #:    88
     total cpu time spent up to now is        8.9 secs

     Computing kpt #:    89
     total cpu time spent up to now is        9.0 secs

     Computing kpt #:    90
     total cpu time spent up to now is        9.1 secs

     Computing kpt #:    91
     total cpu time spent up to now is        9.2 secs

     Computing kpt #:    92
     total cpu time spent up to now is        9.3 secs

     Computing kpt #:    93
     total cpu time spent up to now is        9.4 secs

     Computing kpt #:    94
     total cpu time spent up to now is        9.5 secs

     Computing kpt #:    95
     total cpu time spent up to now is        9.6 secs

     Computing kpt #:    96
     total cpu time spent up to now is        9.7 secs

     Computing kpt #:    97
     total cpu time spent up to now is        9.8 secs

     Computing kpt #:    98
     total cpu time spent up to now is        9.9 secs

     Computing kpt #:    99
     total cpu time spent up to now is       10.0 secs

     Computing kpt #:   100
     total cpu time spent up to now is       10.1 secs

     Computing kpt #:   101
     total cpu time spent up to now is       10.2 secs

     Computing kpt #:   102
     total cpu time spent up to now is       10.4 secs

     Computing kpt #:   103
     total cpu time spent up to now is       10.5 secs

     Computing kpt #:   104
     total cpu time spent up to now is       10.6 secs

     Computing kpt #:   105
     total cpu time spent up to now is       10.7 secs

     Computing kpt #:   106
     total cpu time spent up to now is       10.8 secs

     Computing kpt #:   107
     total cpu time spent up to now is       10.9 secs

     Computing kpt #:   108
     total cpu time spent up to now is       11.0 secs

     Computing kpt #:   109
     total cpu time spent up to now is       11.1 secs

     Computing kpt #:   110
     total cpu time spent up to now is       11.2 secs

     Computing kpt #:   111
     total cpu time spent up to now is       11.3 secs

     Computing kpt #:   112
     total cpu time spent up to now is       11.4 secs

     Computing kpt #:   113
     total cpu time spent up to now is       11.5 secs

     Computing kpt #:   114
     total cpu time spent up to now is       11.5 secs

     Computing kpt #:   115
     total cpu time spent up to now is       11.6 secs

     Computing kpt #:   116
     total cpu time spent up to now is       11.7 secs

     Computing kpt #:   117
     total cpu time spent up to now is       11.8 secs

     Computing kpt #:   118
     total cpu time spent up to now is       11.9 secs

     Computing kpt #:   119
     total cpu time spent up to now is       12.0 secs

     Computing kpt #:   120
     total cpu time spent up to now is       12.1 secs

     ethr =  5.00E-12,  avg # of iterations = 24.2

     total cpu time spent up to now is       12.1 secs

     End of band structure calculation

          k = 0.0000 0.0000 0.0000 (   749 PWs)   bands (ev):

    -5.8369   6.1445   6.1445   6.1445   8.6661   8.6661   8.6661   9.4422

     occupation numbers 
     1.0000   0.5489   0.5489   0.5489   0.0000   0.0000   0.0000   0.0000

          k = 0.0471-0.0471-0.0471 (   737 PWs)   bands (ev):

    -5.7784   5.5445   6.0478   6.0478   8.7222   8.8075   8.8075   9.8791

     occupation numbers 
     1.0000   1.0006   0.8882   0.8882   0.0000   0.0000   0.0000   0.0000

          k = 0.0943-0.0943-0.0943 (   743 PWs)   bands (ev):

    -5.6043   4.3756   5.8205   5.8205   8.5589   9.1391   9.1391  10.9401

     occupation numbers 
     1.0000   1.0000   1.0574   1.0574   0.0000   0.0000   0.0000   0.0000

          k = 0.1414-0.1414-0.1414 (   751 PWs)   bands (ev):

    -5.3182   3.1152   5.5602   5.5602   8.2972   9.4686   9.4686  12.1236

     occupation numbers 
     1.0000   1.0000   1.0008   1.0008   0.0000   0.0000   0.0000   0.0000

          k = 0.1886-0.1886-0.1886 (   757 PWs)   bands (ev):

    -4.9287   1.8963   5.3247   5.3247   8.0416   9.6268   9.6268  13.2374

     occupation numbers 
     1.0000   1.0000   1.0000   1.0000   0.0000   0.0000   0.0000   0.0000

          k = 0.2357-0.2357-0.2357 (   757 PWs)   bands (ev):

    -4.4554   0.7811   5.1388   5.1388   7.8331   9.6007   9.6007  13.8561

     occupation numbers 
     1.0000   1.0000   1.0000   1.0000   0.0000   0.0000   0.0000   0.0000

          k = 0.2828-0.2828-0.2828 (   763 PWs)   bands (ev):

    -3.9487  -0.1611   5.0125   5.0125   7.6887   9.5049   9.5049  13.7912

     occupation numbers 
     1.0000   1.0000   1.0000   1.0000   0.0000   0.0000   0.0000   0.0000

          k = 0.3300-0.3300-0.3300 (   757 PWs)   bands (ev):

    -3.5547  -0.7748   4.9490   4.9490   7.6154   9.4360   9.4360  13.6850

     occupation numbers 
     1.0000   1.0000   1.0000   1.0000   0.0000   0.0000   0.0000   0.0000

          k = 0.0000 0.0000-0.0943 (   741 PWs)   bands (ev):

    -5.7589   5.6692   5.8453   5.8453   8.4755   9.0604   9.0604   9.8930

     occupation numbers 
     1.0000   1.0079   1.0687   1.0687   0.0000   0.0000   0.0000   0.0000

          k = 0.0471-0.0471-0.1414 (   749 PWs)   bands (ev):

    -5.6231   4.7255   5.5633   5.7419   8.4710   9.1564   9.4650  10.6448

     occupation numbers 
     1.0000   1.0000   1.0009   1.0244   0.0000   0.0000   0.0000   0.0000

          k = 0.0943-0.0943-0.1886 (   753 PWs)   bands (ev):

    -5.3739   3.5162   5.2862   5.5211   8.5685   9.1445   9.8531  11.4522

     occupation numbers 
     1.0000   1.0000   1.0000   1.0003   0.0000   0.0000   0.0000   0.0000

          k = 0.1414-0.1414-0.2357 (   755 PWs)   bands (ev):

    -5.0177   2.2981   5.0578   5.2444   8.4447   9.3074  10.0578  11.8649

     occupation numbers 
     1.0000   1.0000   1.0000   1.0000   0.0000   0.0000   0.0000   0.0000

          k = 0.1886-0.1886-0.2828 (   760 PWs)   bands (ev):

    -4.5693   1.1548   4.8972   4.9796   8.2560   9.3791  10.0315  12.4258

     occupation numbers 
     1.0000   1.0000   1.0000   1.0000   0.0000   0.0000   0.0000   0.0000

          k = 0.2357-0.2357-0.3300 (   757 PWs)   bands (ev):

    -4.0643   0.1512   4.7569   4.8112   8.1018   9.3502   9.8808  13.2256

     occupation numbers 
     1.0000   1.0000   1.0000   1.0000   0.0000   0.0000   0.0000   0.0000

          k = 0.2828-0.2828-0.3771 (   754 PWs)   bands (ev):

    -3.6055  -0.5964   4.5907   4.8005   8.0086   9.3305   9.7209  13.7982

     occupation numbers 
     1.0000   1.0000   1.0000   1.0000   0.0000   0.0000   0.0000   0.0000

          k =-0.3771 0.3771 0.2828 (   752 PWs)   bands (ev):

    -3.4470  -0.8271   4.4894   4.8617   7.9848   9.3778   9.6129  13.9025

     occupation numbers 
     1.0000   1.0000   1.0000   1.0000   0.0000   0.0000   0.0000   0.0000

          k =-0.3300 0.3300 0.2357 (   757 PWs)   bands (ev):

    -3.7419  -0.3869   4.4596   4.9894   8.0321   9.5018   9.5733  13.8981

     occupation numbers 
     1.0000   1.0000   1.0000   1.0000   0.0000   0.0000   0.0000   0.0000

          k =-0.2828 0.2828 0.1886 (   754 PWs)   bands (ev):

    -4.2355   0.4668   4.5062   5.1756   8.1487   9.5784   9.6729  13.5730

     occupation numbers 
     1.0000   1.0000   1.0000   1.0000   0.0000   0.0000   0.0000   0.0000

          k =-0.2357 0.2357 0.1414 (   759 PWs)   bands (ev):

    -4.7281   1.5251   4.6325   5.4087   8.3286   9.5517   9.8048  12.8580

     occupation numbers 
     1.0000   1.0000   1.0000   1.0000   0.0000   0.0000   0.0000   0.0000

          k =-0.1886 0.1886 0.0943 (   755 PWs)   bands (ev):

    -5.1481   2.6969   4.8399   5.6688   8.5572   9.3843   9.7427  12.1583

     occupation numbers 
     1.0000   1.0000   1.0000   1.0078   0.0000   0.0000   0.0000   0.0000

          k =-0.1414 0.1414 0.0471 (   759 PWs)   bands (ev):

    -5.4696   3.9078   5.1303   5.9157   8.7986   9.0816   9.4030  11.3951

     occupation numbers 
     1.0000   1.0000   1.0000   1.0822   0.0000   0.0000   0.0000   0.0000

          k =-0.0943 0.0943-0.0000 (   741 PWs)   bands (ev):

    -5.6814   4.9814   5.5439   6.0722   8.8258   8.9353   8.9732  10.4861

     occupation numbers 
     1.0000   1.0000   1.0006   0.8121   0.0000   0.0000   0.0000   0.0000

          k = 0.0000 0.0000-0.1886 (   761 PWs)   bands (ev):

    -5.5258   4.6671   5.2492   5.2492   8.0292   9.9384   9.9384  10.5054

     occupation numbers 
     1.0000   1.0000   1.0000   1.0000   0.0000   0.0000   0.0000   0.0000

          k = 0.0471-0.0471-0.2357 (   755 PWs)   bands (ev):

    -5.3141   3.7711   4.9543   5.0326   7.9931   9.9878  10.4117  10.7205

     occupation numbers 
     1.0000   1.0000   1.0000   1.0000   0.0000   0.0000   0.0000   0.0000

          k = 0.0943-0.0943-0.2828 (   757 PWs)   bands (ev):

    -4.9930   2.6532   4.7181   4.7417   8.1901   9.9053  10.7127  10.7155

     occupation numbers 
     1.0000   1.0000   1.0000   1.0000   0.0000   0.0000   0.0000   0.0000

          k = 0.1414-0.1414-0.3300 (   755 PWs)   bands (ev):

    -4.5735   1.5373   4.4078   4.5586   8.2902   9.9050  10.7509  10.9276

     occupation numbers 
     1.0000   1.0000   1.0000   1.0000   0.0000   0.0000   0.0000   0.0000

          k = 0.1886-0.1886-0.3771 (   748 PWs)   bands (ev):

    -4.0811   0.5123   4.0973   4.4835   8.2649   9.8145  10.5971  11.6612

     occupation numbers 
     1.0000   1.0000   1.0000   1.0000   0.0000   0.0000   0.0000   0.0000

          k = 0.2357-0.2357-0.4243 (   758 PWs)   bands (ev):

    -3.5867  -0.3233   3.8411   4.4940   8.2391   9.7193  10.3873  12.6917

     occupation numbers 
     1.0000   1.0000   1.0000   1.0000   0.0000   0.0000   0.0000   0.0000

          k =-0.4243 0.4243 0.2357 (   751 PWs)   bands (ev):

    -3.2919  -0.7547   3.6560   4.5871   8.2752   9.6846  10.2028  13.7987

     occupation numbers 
     1.0000   1.0000   1.0000   1.0000   0.0000   0.0000   0.0000   0.0000

          k =-0.3771 0.3771 0.1886 (   753 PWs)   bands (ev):

    -3.4549  -0.5196   3.5533   4.7560   8.3857   9.7285  10.0734  14.2145

     occupation numbers 
     1.0000   1.0000   1.0000   1.0000   0.0000   0.0000   0.0000   0.0000

          k =-0.3300 0.3300 0.1414 (   755 PWs)   bands (ev):

    -3.9163   0.2190   3.5433   4.9890   8.5604   9.8435   9.9871  13.4061

     occupation numbers 
     1.0000   1.0000   1.0000   1.0000   0.0000   0.0000   0.0000   0.0000

          k =-0.2828 0.2828 0.0943 (   751 PWs)   bands (ev):

    -4.4206   1.1910   3.6387   5.2675   8.7784   9.8769   9.9672  12.5092

     occupation numbers 
     1.0000   1.0000   1.0000   1.0000   0.0000   0.0000   0.0000   0.0000

          k =-0.2357 0.2357 0.0471 (   755 PWs)   bands (ev):

    -4.8674   2.2532   3.8685   5.5590   9.0085   9.6392   9.9068  11.8929

     occupation numbers 
     1.0000   1.0000   1.0000   1.0008   0.0000   0.0000   0.0000   0.0000

          k =-0.1886 0.1886-0.0000 (   753 PWs)   bands (ev):

    -5.2218   3.2344   4.3306   5.8054   9.1507   9.3038   9.5349  11.6735

     occupation numbers 
     1.0000   1.0000   1.0000   1.0503   0.0000   0.0000   0.0000   0.0000

          k = 0.0000 0.0000-0.2828 (   745 PWs)   bands (ev):

    -5.1399   3.5154   4.6418   4.6418   7.5255   9.9452  11.0066  11.0066

     occupation numbers 
     1.0000   1.0000   1.0000   1.0000   0.0000   0.0000   0.0000   0.0000

          k = 0.0471-0.0471-0.3300 (   749 PWs)   bands (ev):

    -4.8547   2.7329   4.3264   4.3893   7.5158   9.5633  11.2777  11.4690

     occupation numbers 
     1.0000   1.0000   1.0000   1.0000   0.0000   0.0000   0.0000   0.0000

          k = 0.0943-0.0943-0.3771 (   748 PWs)   bands (ev):

    -4.4669   1.7793   3.9122   4.2167   7.7301   9.5785  11.1929  11.6387

     occupation numbers 
     1.0000   1.0000   1.0000   1.0000   0.0000   0.0000   0.0000   0.0000

          k = 0.1414-0.1414-0.4243 (   752 PWs)   bands (ev):

    -3.9948   0.8194   3.4908   4.1329   7.8316  10.1468  11.0269  11.5380

     occupation numbers 
     1.0000   1.0000   1.0000   1.0000   0.0000   0.0000   0.0000   0.0000

          k = 0.1886-0.1886-0.4714 (   749 PWs)   bands (ev):

    -3.4869  -0.0351   3.1275   4.1406   7.8633  10.8247  11.1656  11.3187

     occupation numbers 
     1.0000   1.0000   1.0000   1.0000   0.0000   0.0000   0.0000   0.0000

          k =-0.4714 0.4714 0.1886 (   751 PWs)   bands (ev):

    -3.0904  -0.6063   2.8500   4.2381   7.9447  10.7346  11.0900  12.3366

     occupation numbers 
     1.0000   1.0000   1.0000   1.0000   0.0000   0.0000   0.0000   0.0000

          k =-0.4243 0.4243 0.1414 (   747 PWs)   bands (ev):

    -3.1027  -0.5850   2.6750   4.4193   8.1150  10.6810  10.8963  13.6395

     occupation numbers 
     1.0000   1.0000   1.0000   1.0000   0.0000   0.0000   0.0000   0.0000

          k =-0.3771 0.3771 0.0943 (   751 PWs)   bands (ev):

    -3.5096   0.0080   2.6215   4.6727   8.3715  10.6797  10.7273  13.3017

     occupation numbers 
     1.0000   1.0000   1.0000   1.0000   0.0000   0.0000   0.0000   0.0000

          k =-0.3300 0.3300 0.0471 (   748 PWs)   bands (ev):

    -4.0162   0.8400   2.7292   4.9773   8.6838  10.4982  10.6692  12.3097

     occupation numbers 
     1.0000   1.0000   1.0000   1.0000   0.0000   0.0000   0.0000   0.0000

          k =-0.2828 0.2828-0.0000 (   746 PWs)   bands (ev):

    -4.4841   1.6560   3.1041   5.2953   8.9756  10.0960  10.3897  11.7971

     occupation numbers 
     1.0000   1.0000   1.0000   1.0000   0.0000   0.0000   0.0000   0.0000

          k = 0.0000 0.0000-0.3771 (   745 PWs)   bands (ev):

    -4.6052   2.3228   4.1171   4.1171   7.0859   8.9268  12.1625  12.1625

     occupation numbers 
     1.0000   1.0000   1.0000   1.0000   0.0000   0.0000   0.0000   0.0000

          k = 0.0471-0.0471-0.4243 (   745 PWs)   bands (ev):

    -4.2505   1.6308   3.7559   3.9244   7.1291   8.6158  12.4472  12.5774

     occupation numbers 
     1.0000   1.0000   1.0000   1.0000   0.0000   0.0000   0.0000   0.0000

          k = 0.0943-0.0943-0.4714 (   760 PWs)   bands (ev):

    -3.8037   0.8536   3.2260   3.8219   7.3368   8.8297  12.3839  12.6148

     occupation numbers 
     1.0000   1.0000   1.0000   1.0000   0.0000   0.0000   0.0000   0.0000

          k = 0.1414-0.1414-0.5185 (   756 PWs)   bands (ev):

    -3.2981   0.0916   2.7085   3.8136   7.4248   9.6210  12.2380  12.4304

     occupation numbers 
     1.0000   1.0000   1.0000   1.0000   0.0000   0.0000   0.0000   0.0000

          k =-0.5185 0.5185 0.1414 (   751 PWs)   bands (ev):

    -2.8359  -0.5176   2.2959   3.8993   7.5191  10.7210  12.1189  12.1834

     occupation numbers 
     1.0000   1.0000   1.0000   1.0000   0.0000   0.0000   0.0000   0.0000

          k =-0.4714 0.4714 0.0943 (   743 PWs)   bands (ev):

    -2.7023  -0.6730   2.0275   4.0742   7.7004  11.7089  11.9383  12.3234

     occupation numbers 
     1.0000   1.0000   1.0000   1.0000   0.0000   0.0000   0.0000   0.0000

          k =-0.4243 0.4243 0.0471 (   744 PWs)   bands (ev):

    -3.0382  -0.2517   1.9450   4.3282   7.9789  11.6646  11.7884  13.2073

     occupation numbers 
     1.0000   1.0000   1.0000   1.0000   0.0000   0.0000   0.0000   0.0000

          k =-0.3771 0.3771 0.0000 (   754 PWs)   bands (ev):

    -3.5364   0.3545   2.1398   4.6415   8.3314  11.1935  11.5091  12.4154

     occupation numbers 
     1.0000   1.0000   1.0000   1.0000   0.0000   0.0000   0.0000   0.0000

          k = 0.0000 0.0000-0.4714 (   749 PWs)   bands (ev):

    -3.9283   1.1282   3.7087   3.7087   6.7728   8.0274  13.3690  13.3690

     occupation numbers 
     1.0000   1.0000   1.0000   1.0000   0.0000   0.0000   0.0000   0.0000

          k = 0.0471-0.0471-0.5185 (   756 PWs)   bands (ev):

    -3.5096   0.5021   3.3480   3.5825   6.8770   7.8541  13.6770  13.7226

     occupation numbers 
     1.0000   1.0000   1.0000   1.0000   0.0000   0.0000   0.0000   0.0000

          k = 0.0943-0.0943-0.5657 (   753 PWs)   bands (ev):

    -3.0168  -0.1319   2.7638   3.5516   7.0549   8.3196  13.6323  13.6574

     occupation numbers 
     1.0000   1.0000   1.0000   1.0000   0.0000   0.0000   0.0000   0.0000

          k =-0.5657 0.5657 0.0943 (   750 PWs)   bands (ev):

    -2.5187  -0.6894   2.2011   3.6170   7.1590   9.3136  13.4206  13.4962

     occupation numbers 
     1.0000   1.0000   1.0000   1.0000   0.0000   0.0000   0.0000   0.0000

          k =-0.5185 0.5185 0.0471 (   744 PWs)   bands (ev):

    -2.2745  -0.9296   1.8024   3.7753   7.3346  10.5512  13.1105  13.3624

     occupation numbers 
     1.0000   1.0000   1.0000   1.0000   0.0000   0.0000   0.0000   0.0000

          k =-0.4714 0.4714 0.0000 (   740 PWs)   bands (ev):

    -2.5586  -0.6374   1.6762   4.0180   7.6130  11.8614  12.5772  13.1629

     occupation numbers 
     1.0000   1.0000   1.0000   1.0000   0.0000   0.0000   0.0000   0.0000

          k = 0.0000 0.0000-0.5657 (   753 PWs)   bands (ev):

    -3.1182  -0.0402   3.4307   3.4307   6.6206   7.3438  14.6105  14.6105

     occupation numbers 
     1.0000   1.0000   1.0000   1.0000   0.0001   0.0000   0.0000   0.0000

          k = 0.0471-0.0471-0.6128 (   750 PWs)   bands (ev):

    -2.6440  -0.6106   3.1042   3.3740   6.7766   7.3347  14.8993  14.9348

     occupation numbers 
     1.0000   1.0000   1.0000   1.0000   0.0000   0.0000   0.0000   0.0000

          k =-0.6128 0.6128 0.0471 (   748 PWs)   bands (ev):

    -2.1318  -1.1289   2.5369   3.4147   6.9079   8.0665  14.7282  14.9051

     occupation numbers 
     1.0000   1.0000   1.0000   1.0000   0.0000   0.0000   0.0000   0.0000

          k =-0.5657 0.5657 0.0000 (   746 PWs)   bands (ev):

    -1.9045  -1.3050   2.0296   3.5507   7.0674   9.2130  14.1951  14.7501

     occupation numbers 
     1.0000   1.0000   1.0000   1.0000   0.0000   0.0000   0.0000   0.0000

          k = 0.0000 0.0000-0.6600 (   745 PWs)   bands (ev):

    -2.1877  -1.1543   3.2903   3.2903   6.6530   6.8888  15.8325  15.8325

     occupation numbers 
     1.0000   1.0000   1.0000   1.0000   0.0000   0.0000   0.0000   0.0000

          k =-0.6600 0.6600 0.0000 (   748 PWs)   bands (ev):

    -1.6988  -1.6406   3.0231   3.3041   6.7808   7.1226  15.8125  15.9694

     occupation numbers 
     1.0000   1.0000   1.0000   1.0000   0.0000   0.0000   0.0000   0.0000

          k = 0.0000-0.0943-0.1886 (   754 PWs)   bands (ev):

    -5.4495   4.0735   4.9422   5.6656   8.4512   9.4360   9.7919  11.0707

     occupation numbers 
     1.0000   1.0000   1.0000   1.0074   0.0000   0.0000   0.0000   0.0000

          k = 0.0471-0.1414-0.2357 (   756 PWs)   bands (ev):

    -5.1643   3.0423   4.4956   5.4829   8.6438   9.4223  10.1849  11.2140

     occupation numbers 
     1.0000   1.0000   1.0000   1.0001   0.0000   0.0000   0.0000   0.0000

          k = 0.0943-0.1886-0.2828 (   756 PWs)   bands (ev):

    -4.7760   1.9094   4.2200   5.2228   8.6981   9.4392  10.3723  11.4303

     occupation numbers 
     1.0000   1.0000   1.0000   1.0000   0.0000   0.0000   0.0000   0.0000

          k = 0.1414-0.2357-0.3300 (   756 PWs)   bands (ev):

    -4.3035   0.8342   4.0445   4.9689   8.6011   9.4058  10.3363  12.0629

     occupation numbers 
     1.0000   1.0000   1.0000   1.0000   0.0000   0.0000   0.0000   0.0000

          k = 0.1886-0.2828-0.3771 (   755 PWs)   bands (ev):

    -3.7965  -0.0886   3.9451   4.7702   8.4995   9.3085  10.2303  12.9945

     occupation numbers 
     1.0000   1.0000   1.0000   1.0000   0.0000   0.0000   0.0000   0.0000

          k =-0.4714 0.3771 0.2828 (   754 PWs)   bands (ev):

    -3.4002  -0.6963   3.9031   4.6602   8.4434   9.2384  10.1562  13.9330

     occupation numbers 
     1.0000   1.0000   1.0000   1.0000   0.0000   0.0000   0.0000   0.0000

          k =-0.0000-0.0943-0.2828 (   755 PWs)   bands (ev):

    -5.0660   3.1066   4.3312   4.9525   7.9677  10.0248  10.6274  10.8961

     occupation numbers 
     1.0000   1.0000   1.0000   1.0000   0.0000   0.0000   0.0000   0.0000

          k = 0.0471-0.1414-0.3300 (   753 PWs)   bands (ev):

    -4.7115   2.1779   3.8829   4.7458   8.2047  10.0060  10.4639  11.2640

     occupation numbers 
     1.0000   1.0000   1.0000   1.0000   0.0000   0.0000   0.0000   0.0000

          k = 0.0943-0.1886-0.3771 (   752 PWs)   bands (ev):

    -4.2647   1.1734   3.5854   4.5047   8.3562  10.1343  10.5384  11.3523

     occupation numbers 
     1.0000   1.0000   1.0000   1.0000   0.0000   0.0000   0.0000   0.0000

          k = 0.1414-0.2357-0.4243 (   753 PWs)   bands (ev):

    -3.7600   0.2398   3.3659   4.3308   8.3895   9.9116  11.2411  11.4259

     occupation numbers 
     1.0000   1.0000   1.0000   1.0000   0.0000   0.0000   0.0000   0.0000

          k =-0.5185 0.4243 0.2357 (   750 PWs)   bands (ev):

    -3.2983  -0.4762   3.1964   4.2714   8.4364   9.7050  11.1497  12.5320

     occupation numbers 
     1.0000   1.0000   1.0000   1.0000   0.0000   0.0000   0.0000   0.0000

          k =-0.4714 0.3771 0.1886 (   751 PWs)   bands (ev):

    -3.1400  -0.6966   3.0798   4.3337   8.5535   9.5598  11.0751  13.7704

     occupation numbers 
     1.0000   1.0000   1.0000   1.0000   0.0000   0.0000   0.0000   0.0000

          k =-0.4243 0.3300 0.1414 (   757 PWs)   bands (ev):

    -3.4427  -0.2610   3.0353   4.5021   8.7443   9.4869  11.0462  12.8753

     occupation numbers 
     1.0000   1.0000   1.0000   1.0000   0.0000   0.0000   0.0000   0.0000

          k =-0.3771 0.2828 0.0943 (   754 PWs)   bands (ev):

    -3.9386   0.5508   3.0887   4.7508   8.9801   9.4679  11.0251  11.8517

     occupation numbers 
     1.0000   1.0000   1.0000   1.0000   0.0000   0.0000   0.0000   0.0000

          k =-0.3300 0.2357 0.0471 (   754 PWs)   bands (ev):

    -4.4290   1.4982   3.2817   5.0437   9.1701   9.4268  10.9068  11.1714

     occupation numbers 
     1.0000   1.0000   1.0000   1.0000   0.0000   0.0000   0.0000   0.0000

          k =-0.2828 0.1886-0.0000 (   756 PWs)   bands (ev):

    -4.8458   2.3922   3.7155   5.3209   8.9726   9.4765  10.6152  10.9734

     occupation numbers 
     1.0000   1.0000   1.0000   1.0000   0.0000   0.0000   0.0000   0.0000

          k = 0.0000-0.0943-0.3771 (   748 PWs)   bands (ev):

    -4.5353   2.0853   3.8090   4.2609   7.5388   9.2021  11.4467  12.0916

     occupation numbers 
     1.0000   1.0000   1.0000   1.0000   0.0000   0.0000   0.0000   0.0000

          k = 0.0471-0.1414-0.4243 (   753 PWs)   bands (ev):

    -4.1179   1.2884   3.3464   4.0471   7.8050   9.2568  11.2879  12.4379

     occupation numbers 
     1.0000   1.0000   1.0000   1.0000   0.0000   0.0000   0.0000   0.0000

          k = 0.0943-0.1886-0.4714 (   752 PWs)   bands (ev):

    -3.6267   0.4556   2.9473   3.8931   7.9418   9.8945  11.0513  12.4594

     occupation numbers 
     1.0000   1.0000   1.0000   1.0000   0.0000   0.0000   0.0000   0.0000

          k =-0.5657 0.4714 0.1886 (   745 PWs)   bands (ev):

    -3.1297  -0.2765   2.6169   3.8614   8.0193  10.6674  11.0750  12.3577

     occupation numbers 
     1.0000   1.0000   1.0000   1.0000   0.0000   0.0000   0.0000   0.0000

          k =-0.5185 0.4243 0.1414 (   748 PWs)   bands (ev):

    -2.8357  -0.6619   2.3775   3.9501   8.1587  10.5450  12.1436  12.3361

     occupation numbers 
     1.0000   1.0000   1.0000   1.0000   0.0000   0.0000   0.0000   0.0000

          k =-0.4714 0.3771 0.0943 (   754 PWs)   bands (ev):

    -3.0194  -0.4172   2.2570   4.1430   8.3880  10.3952  12.1184  12.8264

     occupation numbers 
     1.0000   1.0000   1.0000   1.0000   0.0000   0.0000   0.0000   0.0000

          k =-0.4243 0.3300 0.0471 (   756 PWs)   bands (ev):

    -3.4897   0.2376   2.3004   4.4175   8.6970  10.2439  11.7096  12.0503

     occupation numbers 
     1.0000   1.0000   1.0000   1.0000   0.0000   0.0000   0.0000   0.0000

          k =-0.3771 0.2828-0.0000 (   756 PWs)   bands (ev):

    -3.9899   0.9489   2.6054   4.7388   9.0423   9.8831  11.1299  11.6406

     occupation numbers 
     1.0000   1.0000   1.0000   1.0000   0.0000   0.0000   0.0000   0.0000

          k = 0.0000-0.0943-0.4714 (   752 PWs)   bands (ev):

    -3.8645   1.0145   3.4112   3.7058   7.2265   8.3491  12.5114  13.3351

     occupation numbers 
     1.0000   1.0000   1.0000   1.0000   0.0000   0.0000   0.0000   0.0000

          k = 0.0471-0.1414-0.5185 (   753 PWs)   bands (ev):

    -3.3942   0.3450   2.9169   3.5368   7.5050   8.6049  12.3110  13.6729

     occupation numbers 
     1.0000   1.0000   1.0000   1.0000   0.0000   0.0000   0.0000   0.0000

          k =-0.6128 0.5185 0.1414 (   749 PWs)   bands (ev):

    -2.8847  -0.2984   2.4039   3.5082   7.6272   9.4750  12.0598  13.6600

     occupation numbers 
     1.0000   1.0000   1.0000   1.0000   0.0000   0.0000   0.0000   0.0000

          k =-0.5657 0.4714 0.0943 (   744 PWs)   bands (ev):

    -2.4904  -0.7467   2.0061   3.6006   7.7669  10.6293  11.8461  13.5218

     occupation numbers 
     1.0000   1.0000   1.0000   1.0000   0.0000   0.0000   0.0000   0.0000

          k =-0.5185 0.4243 0.0471 (   743 PWs)   bands (ev):

    -2.5550  -0.6649   1.7963   3.7974   7.9972  11.4271  12.1471  12.8957

     occupation numbers 
     1.0000   1.0000   1.0000   1.0000   0.0000   0.0000   0.0000   0.0000

          k =-0.4714 0.3771 0.0000 (   745 PWs)   bands (ev):

    -2.9923  -0.1988   1.8593   4.0799   8.3187  11.1041  11.9635  12.8531

     occupation numbers 
     1.0000   1.0000   1.0000   1.0000   0.0000   0.0000   0.0000   0.0000

          k = 0.0000-0.0943-0.5657 (   749 PWs)   bands (ev):

    -3.0644  -0.0760   3.1545   3.3187   7.0657   7.7072  13.6366  14.6049

     occupation numbers 
     1.0000   1.0000   1.0000   1.0000   0.0000   0.0000   0.0000   0.0000

          k =-0.6600 0.5657 0.0943 (   746 PWs)   bands (ev):

    -2.5578  -0.6388   2.6376   3.2440   7.3244   8.2045  13.4114  14.9128

     occupation numbers 
     1.0000   1.0000   1.0000   1.0000   0.0000   0.0000   0.0000   0.0000

          k =-0.6128 0.5185 0.0471 (   743 PWs)   bands (ev):

    -2.1017  -1.0824   2.1014   3.3273   7.4612   9.2704  13.1511  14.3574

     occupation numbers 
     1.0000   1.0000   1.0000   1.0000   0.0000   0.0000   0.0000   0.0000

          k =-0.5657 0.4714 0.0000 (   744 PWs)   bands (ev):

    -2.1280  -1.0291   1.7697   3.5170   7.6796  10.5526  12.7460  13.2105

     occupation numbers 
     1.0000   1.0000   1.0000   1.0000   0.0000   0.0000   0.0000   0.0000

          k =-0.7071 0.6128 0.0471 (   755 PWs)   bands (ev):

    -2.1502  -1.1439   3.0488   3.1014   7.0797   7.2878  14.8135  15.7037

     occupation numbers 
     1.0000   1.0000   1.0000   1.0000   0.0000   0.0000   0.0000   0.0000

          k =-0.6600 0.5657 0.0000 (   748 PWs)   bands (ev):

    -1.7189  -1.5310   2.5414   3.1497   7.2650   8.0695  14.4942  14.6786

     occupation numbers 
     1.0000   1.0000   1.0000   1.0000   0.0000   0.0000   0.0000   0.0000

          k = 0.0000-0.1886-0.3771 (   753 PWs)   bands (ev):

    -4.3277   1.5563   3.2003   4.5358   8.5790   9.9592  10.2184  11.8993

     occupation numbers 
     1.0000   1.0000   1.0000   1.0000   0.0000   0.0000   0.0000   0.0000

          k = 0.0471-0.2357-0.4243 (   753 PWs)   bands (ev):

    -3.8592   0.7754   2.7982   4.2483   8.9008   9.9016  10.3623  12.2562

     occupation numbers 
     1.0000   1.0000   1.0000   1.0000   0.0000   0.0000   0.0000   0.0000

          k =-0.6128 0.4243 0.2357 (   750 PWs)   bands (ev):

    -3.3519  -0.0124   2.6015   4.0019   9.0272   9.5909  11.2834  12.3331

     occupation numbers 
     1.0000   1.0000   1.0000   1.0000   0.0000   0.0000   0.0000   0.0000

          k =-0.5657 0.3771 0.1886 (   747 PWs)   bands (ev):

    -2.9465  -0.5755   2.5235   3.8625   9.1458   9.3328  12.3234  12.4675

     occupation numbers 
     1.0000   1.0000   1.0000   1.0000   0.0000   0.0000   0.0000   0.0000

          k = 0.0000-0.1886-0.4714 (   755 PWs)   bands (ev):

    -3.6771   0.7006   2.8248   3.7577   8.2812   9.2111  11.0434  13.2360

     occupation numbers 
     1.0000   1.0000   1.0000   1.0000   0.0000   0.0000   0.0000   0.0000

          k =-0.6600 0.4714 0.1886 (   746 PWs)   bands (ev):

    -3.1750   0.0484   2.4442   3.4954   8.6002   9.7681  10.7646  13.6055

     occupation numbers 
     1.0000   1.0000   1.0000   1.0000   0.0000   0.0000   0.0000   0.0000

          k =-0.6128 0.4243 0.1414 (   748 PWs)   bands (ev):

    -2.7051  -0.5282   2.1842   3.3752   8.7415  10.3318  11.0081  13.6576

     occupation numbers 
     1.0000   1.0000   1.0000   1.0000   0.0000   0.0000   0.0000   0.0000

          k =-0.5657 0.3771 0.0943 (   742 PWs)   bands (ev):

    -2.5491  -0.7073   2.0370   3.4218   8.9295  10.1653  12.1536  12.6414

     occupation numbers 
     1.0000   1.0000   1.0000   1.0000   0.0000   0.0000   0.0000   0.0000

          k =-0.5185 0.3300 0.0471 (   745 PWs)   bands (ev):

    -2.8790  -0.3177   2.0381   3.6138   9.1994   9.9835  11.2826  13.4481

     occupation numbers 
     1.0000   1.0000   1.0000   1.0000   0.0000   0.0000   0.0000   0.0000

          k =-0.4714 0.2828-0.0000 (   751 PWs)   bands (ev):

    -3.3783   0.2663   2.2653   3.9109   9.5381   9.6196  10.4899  13.0819

     occupation numbers 
     1.0000   1.0000   1.0000   1.0000   0.0000   0.0000   0.0000   0.0000

          k =-0.7071 0.5185 0.1414 (   748 PWs)   bands (ev):

    -2.9094  -0.1987   2.6116   3.1427   8.1170   8.6420  12.0263  14.5851

     occupation numbers 
     1.0000   1.0000   1.0000   1.0000   0.0000   0.0000   0.0000   0.0000

          k =-0.6600 0.4714 0.0943 (   747 PWs)   bands (ev):

    -2.4070  -0.7191   2.2312   2.9786   8.4068   9.4473  11.7401  14.0898

     occupation numbers 
     1.0000   1.0000   1.0000   1.0000   0.0000   0.0000   0.0000   0.0000

          k =-0.6128 0.4243 0.0471 (   749 PWs)   bands (ev):

    -2.1241  -0.9917   1.9084   3.0522   8.5898  10.6094  11.5458  12.6813

     occupation numbers 
     1.0000   1.0000   1.0000   1.0000   0.0000   0.0000   0.0000   0.0000

          k =-0.5657 0.3771 0.0000 (   742 PWs)   bands (ev):

    -2.3968  -0.7199   1.8091   3.2788   8.8552  10.9288  11.5380  12.2677

     occupation numbers 
     1.0000   1.0000   1.0000   1.0000   0.0000   0.0000   0.0000   0.0000

          k =-0.7071 0.5185 0.0471 (   747 PWs)   bands (ev):

    -2.0484  -1.1293   2.5797   2.7500   8.1104   8.2799  13.1241  14.3192

     occupation numbers 
     1.0000   1.0000   1.0000   1.0000   0.0000   0.0000   0.0000   0.0000

          k =-0.6600 0.4714 0.0000 (   744 PWs)   bands (ev):

    -1.7383  -1.3846   2.1609   2.7968   8.3405   9.3402  12.7864  12.9355

     occupation numbers 
     1.0000   1.0000   1.0000   1.0000   0.0000   0.0000   0.0000   0.0000

          k =-0.7071 0.4243 0.1414 (   750 PWs)   bands (ev):

    -2.6741  -0.4233   2.1160   3.1150   9.4656   9.8226  10.5206  13.8648

     occupation numbers 
     1.0000   1.0000   1.0000   1.0000   0.0000   0.0000   0.0000   0.0000

          k =-0.6600 0.3771 0.0943 (   743 PWs)   bands (ev):

    -2.2393  -0.8538   1.9720   2.8901   9.7101  10.0767  11.0352  12.4218

     occupation numbers 
     1.0000   1.0000   1.0000   1.0000   0.0000   0.0000   0.0000   0.0000

          k =-0.7071 0.4243 0.0471 (   748 PWs)   bands (ev):

    -1.9155  -1.1516   2.1902   2.5206   9.4473   9.5775  11.4549  12.5979

     occupation numbers 
     1.0000   1.0000   1.0000   1.0000   0.0000   0.0000   0.0000   0.0000

          k =-0.6600 0.3771 0.0000 (   744 PWs)   bands (ev):

    -1.8004  -1.2420   2.0313   2.5405   9.6930  10.5753  11.2936  11.3703

     occupation numbers 
     1.0000   1.0000   1.0000   1.0000   0.0000   0.0000   0.0000   0.0000

     the Fermi energy is     6.1855 ev

     Writing output data file Si.save/

     init_run     :      0.36s CPU      0.49s WALL (       1 calls)
     electrons    :     10.40s CPU     10.83s WALL (       1 calls)

     Called by init_run:
     wfcinit      :      0.00s CPU      0.00s WALL (       1 calls)
     wfcinit:atom :      0.01s CPU      0.02s WALL (     120 calls)
     wfcinit:wfcr :      0.46s CPU      0.52s WALL (     120 calls)
     potinit      :      0.02s CPU      0.05s WALL (       1 calls)
     hinit0       :      0.29s CPU      0.33s WALL (       1 calls)

     Called by electrons:
     c_bands      :     10.40s CPU     10.83s WALL (       1 calls)
     v_of_rho     :      0.02s CPU      0.04s WALL (       1 calls)
     v_h          :      0.00s CPU      0.00s WALL (       1 calls)
     v_xc         :      0.02s CPU      0.04s WALL (       1 calls)
     newd         :      0.04s CPU      0.10s WALL (       1 calls)

     Called by c_bands:
     init_us_2    :      0.03s CPU      0.03s WALL (     120 calls)
     cegterg      :      9.67s CPU      9.97s WALL (     200 calls)

     Called by sum_band:

     Called by *egterg:
     h_psi        :      7.05s CPU      7.31s WALL (    3230 calls)
     s_psi        :      0.64s CPU      0.67s WALL (    3230 calls)
     g_psi        :      0.09s CPU      0.09s WALL (    2910 calls)
     cdiaghg      :      0.49s CPU      0.50s WALL (    3030 calls)
     cegterg:over :      0.71s CPU      0.74s WALL (    2910 calls)
     cegterg:upda :      0.51s CPU      0.54s WALL (    2910 calls)
     cegterg:last :      0.46s CPU      0.47s WALL (     678 calls)

     Called by h_psi:
     h_psi:pot    :      7.02s CPU      7.28s WALL (    3230 calls)
     h_psi:calbec :      0.67s CPU      0.69s WALL (    3230 calls)
     vloc_psi     :      5.69s CPU      5.91s WALL (    3230 calls)
     add_vuspsi   :      0.65s CPU      0.67s WALL (    3230 calls)

     General routines
     calbec       :      0.67s CPU      0.69s WALL (    3230 calls)
     fft          :      0.01s CPU      0.02s WALL (      13 calls)
     ffts         :      0.00s CPU      0.00s WALL (       1 calls)
     fftw         :      4.49s CPU      4.66s WALL (   32934 calls)
     interpolate  :      0.00s CPU      0.00s WALL (       1 calls)
     davcio       :      0.04s CPU      0.07s WALL (     240 calls)

     Parallel routines

     PWSCF        :     11.50s CPU     12.15s WALL


   This run was terminated on:   6:46:44  15Mar2023            

=------------------------------------------------------------------------------=
   JOB DONE.
=------------------------------------------------------------------------------=
