
     Program PWSCF v.6.4.1 starts on 15Mar2023 at  6:50: 8 

     This program is part of the open-source Quantum ESPRESSO suite
     for quantum simulation of materials; please cite
         "P. Giannozzi et al., J. Phys.:Condens. Matter 21 395502 (2009);
         "P. Giannozzi et al., J. Phys.:Condens. Matter 29 465901 (2017);
          URL http://www.quantum-espresso.org", 
     in publications or presentations arising from this work. More details at
     http://www.quantum-espresso.org/quote

     Parallel version (MPI), running on     1 processors

     MPI processes distributed on     1 nodes
     Waiting for input...
     Reading input from standard input

     Current dimensions of program PWSCF are:
     Max number of different atomic species (ntypx) = 10
     Max number of k-points (npk) =  40000
     Max angular momentum in pseudopotentials (lmaxx) =  3

     Atomic positions and unit cell read from directory:
     ./Si.save/


     Subspace diagonalization in iterative solution of the eigenvalue problem:
     a serial algorithm will be used

     Message from routine setup:
     DEPRECATED: symmetry with ibrav=0, use correct ibrav instead

     G-vector sticks info
     --------------------
     sticks:   dense  smooth     PW     G-vecs:    dense   smooth      PW
     Sum         859     433    151                16889     5985    1139



     bravais-lattice index     =            0
     lattice parameter (alat)  =       7.2594  a.u.
     unit-cell volume          =     270.5148 (a.u.)^3
     number of atoms/cell      =            2
     number of atomic types    =            1
     number of electrons       =         8.00
     number of Kohn-Sham states=            8
     kinetic-energy cutoff     =      30.0000  Ry
     charge density cutoff     =     240.0000  Ry
     Exchange-correlation      = PBESOL ( 1  4 10  8 0 0)

     celldm(1)=   7.259421  celldm(2)=   0.000000  celldm(3)=   0.000000
     celldm(4)=   0.000000  celldm(5)=   0.000000  celldm(6)=   0.000000

     crystal axes: (cart. coord. in units of alat)
               a(1) = (  -0.707107  -0.707107   0.000000 )  
               a(2) = (  -0.707107   0.000000  -0.707107 )  
               a(3) = (   0.000000  -0.707107  -0.707107 )  

     reciprocal axes: (cart. coord. in units 2 pi/alat)
               b(1) = ( -0.707107 -0.707107  0.707107 )  
               b(2) = ( -0.707107  0.707107 -0.707107 )  
               b(3) = (  0.707107 -0.707107 -0.707107 )  


     PseudoPot. # 1 for Si read from file:
     ./Si.pbesol-n-rrkjus_psl.1.0.0.UPF
     MD5 check sum: c4212819de858c94c3a1644338846ac9
     Pseudo is Ultrasoft + core correction, Zval =  4.0
     Generated using "atomic" code by A. Dal Corso v.6.0 svn rev. 13079
     Using radial grid of 1141 points,  6 beta functions with: 
                l(1) =   0
                l(2) =   0
                l(3) =   1
                l(4) =   1
                l(5) =   2
                l(6) =   2
     Q(r) pseudized with 0 coefficients 


     atomic species   valence    mass     pseudopotential
        Si             4.00    28.08550     Si( 1.00)

     48 Sym. Ops., with inversion, found (24 have fractional translation)


                                    s                        frac. trans.

      isym =  1     identity                                     

 cryst.   s( 1) = (     1          0          0      )
                  (     0          1          0      )
                  (     0          0          1      )

 cart.    s( 1) = (  1.0000000  0.0000000  0.0000000 )
                  (  0.0000000  1.0000000  0.0000000 )
                  (  0.0000000  0.0000000  1.0000000 )


      isym =  2     180 deg rotation - cart. axis [0,0,1]        

 cryst.   s( 2) = (    -1          0          0      )
                  (    -1          0          1      )
                  (    -1          1          0      )

 cart.    s( 2) = ( -1.0000000  0.0000000  0.0000000 )
                  (  0.0000000 -1.0000000  0.0000000 )
                  (  0.0000000  0.0000000  1.0000000 )


      isym =  3     180 deg rotation - cart. axis [0,1,0]        

 cryst.   s( 3) = (     0         -1          1      )
                  (     0         -1          0      )
                  (     1         -1          0      )

 cart.    s( 3) = ( -1.0000000  0.0000000  0.0000000 )
                  (  0.0000000  1.0000000  0.0000000 )
                  (  0.0000000  0.0000000 -1.0000000 )


      isym =  4     180 deg rotation - cart. axis [1,0,0]        

 cryst.   s( 4) = (     0          1         -1      )
                  (     1          0         -1      )
                  (     0          0         -1      )

 cart.    s( 4) = (  1.0000000  0.0000000  0.0000000 )
                  (  0.0000000 -1.0000000  0.0000000 )
                  (  0.0000000  0.0000000 -1.0000000 )


      isym =  5     180 deg rotation - cart. axis [1,1,0]        

 cryst.   s( 5) = (     1          0          0      )    f =(  0.2500000 )
                  (     1         -1          0      )       (  0.2500000 )
                  (     1          0         -1      )       (  0.2500000 )

 cart.    s( 5) = (  0.0000000  1.0000000  0.0000000 )    f =( -0.3535534 )
                  (  1.0000000  0.0000000  0.0000000 )       ( -0.3535534 )
                  (  0.0000000  0.0000000 -1.0000000 )       ( -0.3535534 )


      isym =  6     180 deg rotation - cart. axis [1,-1,0]       

 cryst.   s( 6) = (    -1          0          0      )    f =(  0.2500000 )
                  (     0          0         -1      )       (  0.2500000 )
                  (     0         -1          0      )       (  0.2500000 )

 cart.    s( 6) = (  0.0000000 -1.0000000  0.0000000 )    f =( -0.3535534 )
                  ( -1.0000000  0.0000000  0.0000000 )       ( -0.3535534 )
                  (  0.0000000  0.0000000 -1.0000000 )       ( -0.3535534 )


      isym =  7      90 deg rotation - cart. axis [0,0,-1]       

 cryst.   s( 7) = (     0          1         -1      )    f =(  0.2500000 )
                  (    -1          1          0      )       (  0.2500000 )
                  (     0          1          0      )       (  0.2500000 )

 cart.    s( 7) = (  0.0000000  1.0000000  0.0000000 )    f =( -0.3535534 )
                  ( -1.0000000  0.0000000  0.0000000 )       ( -0.3535534 )
                  (  0.0000000  0.0000000  1.0000000 )       ( -0.3535534 )


      isym =  8      90 deg rotation - cart. axis [0,0,1]        

 cryst.   s( 8) = (     0         -1          1      )    f =(  0.2500000 )
                  (     0          0          1      )       (  0.2500000 )
                  (    -1          0          1      )       (  0.2500000 )

 cart.    s( 8) = (  0.0000000 -1.0000000  0.0000000 )    f =( -0.3535534 )
                  (  1.0000000  0.0000000  0.0000000 )       ( -0.3535534 )
                  (  0.0000000  0.0000000  1.0000000 )       ( -0.3535534 )


      isym =  9     180 deg rotation - cart. axis [1,0,1]        

 cryst.   s( 9) = (    -1          1          0      )    f =(  0.2500000 )
                  (     0          1          0      )       (  0.2500000 )
                  (     0          1         -1      )       (  0.2500000 )

 cart.    s( 9) = (  0.0000000  0.0000000  1.0000000 )    f =( -0.3535534 )
                  (  0.0000000 -1.0000000  0.0000000 )       ( -0.3535534 )
                  (  1.0000000  0.0000000  0.0000000 )       ( -0.3535534 )


      isym = 10     180 deg rotation - cart. axis [-1,0,1]       

 cryst.   s(10) = (     0          0         -1      )    f =(  0.2500000 )
                  (     0         -1          0      )       (  0.2500000 )
                  (    -1          0          0      )       (  0.2500000 )

 cart.    s(10) = (  0.0000000  0.0000000 -1.0000000 )    f =( -0.3535534 )
                  (  0.0000000 -1.0000000  0.0000000 )       ( -0.3535534 )
                  ( -1.0000000  0.0000000  0.0000000 )       ( -0.3535534 )


      isym = 11      90 deg rotation - cart. axis [0,1,0]        

 cryst.   s(11) = (     1         -1          0      )    f =(  0.2500000 )
                  (     1          0         -1      )       (  0.2500000 )
                  (     1          0          0      )       (  0.2500000 )

 cart.    s(11) = (  0.0000000  0.0000000  1.0000000 )    f =( -0.3535534 )
                  (  0.0000000  1.0000000  0.0000000 )       ( -0.3535534 )
                  ( -1.0000000  0.0000000  0.0000000 )       ( -0.3535534 )


      isym = 12      90 deg rotation - cart. axis [0,-1,0]       

 cryst.   s(12) = (     0          0          1      )    f =(  0.2500000 )
                  (    -1          0          1      )       (  0.2500000 )
                  (     0         -1          1      )       (  0.2500000 )

 cart.    s(12) = (  0.0000000  0.0000000 -1.0000000 )    f =( -0.3535534 )
                  (  0.0000000  1.0000000  0.0000000 )       ( -0.3535534 )
                  (  1.0000000  0.0000000  0.0000000 )       ( -0.3535534 )


      isym = 13     180 deg rotation - cart. axis [0,1,1]        

 cryst.   s(13) = (    -1          0          1      )    f =(  0.2500000 )
                  (     0         -1          1      )       (  0.2500000 )
                  (     0          0          1      )       (  0.2500000 )

 cart.    s(13) = ( -1.0000000  0.0000000  0.0000000 )    f =( -0.3535534 )
                  (  0.0000000  0.0000000  1.0000000 )       ( -0.3535534 )
                  (  0.0000000  1.0000000  0.0000000 )       ( -0.3535534 )


      isym = 14     180 deg rotation - cart. axis [0,1,-1]       

 cryst.   s(14) = (     0         -1          0      )    f =(  0.2500000 )
                  (    -1          0          0      )       (  0.2500000 )
                  (     0          0         -1      )       (  0.2500000 )

 cart.    s(14) = ( -1.0000000  0.0000000  0.0000000 )    f =( -0.3535534 )
                  (  0.0000000  0.0000000 -1.0000000 )       ( -0.3535534 )
                  (  0.0000000 -1.0000000  0.0000000 )       ( -0.3535534 )


      isym = 15      90 deg rotation - cart. axis [-1,0,0]       

 cryst.   s(15) = (     1          0         -1      )    f =(  0.2500000 )
                  (     1          0          0      )       (  0.2500000 )
                  (     1         -1          0      )       (  0.2500000 )

 cart.    s(15) = (  1.0000000  0.0000000  0.0000000 )    f =( -0.3535534 )
                  (  0.0000000  0.0000000  1.0000000 )       ( -0.3535534 )
                  (  0.0000000 -1.0000000  0.0000000 )       ( -0.3535534 )


      isym = 16      90 deg rotation - cart. axis [1,0,0]        

 cryst.   s(16) = (     0          1          0      )    f =(  0.2500000 )
                  (     0          1         -1      )       (  0.2500000 )
                  (    -1          1          0      )       (  0.2500000 )

 cart.    s(16) = (  1.0000000  0.0000000  0.0000000 )    f =( -0.3535534 )
                  (  0.0000000  0.0000000 -1.0000000 )       ( -0.3535534 )
                  (  0.0000000  1.0000000  0.0000000 )       ( -0.3535534 )


      isym = 17     120 deg rotation - cart. axis [-1,-1,-1]     

 cryst.   s(17) = (     0          1          0      )
                  (     0          0          1      )
                  (     1          0          0      )

 cart.    s(17) = (  0.0000000  1.0000000  0.0000000 )
                  (  0.0000000  0.0000000  1.0000000 )
                  (  1.0000000  0.0000000  0.0000000 )


      isym = 18     120 deg rotation - cart. axis [-1,1,1]       

 cryst.   s(18) = (     0         -1          0      )
                  (     1         -1          0      )
                  (     0         -1          1      )

 cart.    s(18) = (  0.0000000 -1.0000000  0.0000000 )
                  (  0.0000000  0.0000000  1.0000000 )
                  ( -1.0000000  0.0000000  0.0000000 )


      isym = 19     120 deg rotation - cart. axis [1,1,-1]       

 cryst.   s(19) = (     1          0         -1      )
                  (     0          0         -1      )
                  (     0          1         -1      )

 cart.    s(19) = (  0.0000000  1.0000000  0.0000000 )
                  (  0.0000000  0.0000000 -1.0000000 )
                  ( -1.0000000  0.0000000  0.0000000 )


      isym = 20     120 deg rotation - cart. axis [1,-1,1]       

 cryst.   s(20) = (    -1          0          1      )
                  (    -1          1          0      )
                  (    -1          0          0      )

 cart.    s(20) = (  0.0000000 -1.0000000  0.0000000 )
                  (  0.0000000  0.0000000 -1.0000000 )
                  (  1.0000000  0.0000000  0.0000000 )


      isym = 21     120 deg rotation - cart. axis [1,1,1]        

 cryst.   s(21) = (     0          0          1      )
                  (     1          0          0      )
                  (     0          1          0      )

 cart.    s(21) = (  0.0000000  0.0000000  1.0000000 )
                  (  1.0000000  0.0000000  0.0000000 )
                  (  0.0000000  1.0000000  0.0000000 )


      isym = 22     120 deg rotation - cart. axis [-1,1,-1]      

 cryst.   s(22) = (     0          0         -1      )
                  (     0          1         -1      )
                  (     1          0         -1      )

 cart.    s(22) = (  0.0000000  0.0000000  1.0000000 )
                  ( -1.0000000  0.0000000  0.0000000 )
                  (  0.0000000 -1.0000000  0.0000000 )


      isym = 23     120 deg rotation - cart. axis [1,-1,-1]      

 cryst.   s(23) = (    -1          1          0      )
                  (    -1          0          0      )
                  (    -1          0          1      )

 cart.    s(23) = (  0.0000000  0.0000000 -1.0000000 )
                  ( -1.0000000  0.0000000  0.0000000 )
                  (  0.0000000  1.0000000  0.0000000 )


      isym = 24     120 deg rotation - cart. axis [-1,-1,1]      

 cryst.   s(24) = (     1         -1          0      )
                  (     0         -1          1      )
                  (     0         -1          0      )

 cart.    s(24) = (  0.0000000  0.0000000 -1.0000000 )
                  (  1.0000000  0.0000000  0.0000000 )
                  (  0.0000000 -1.0000000  0.0000000 )


      isym = 25     inversion                                    

 cryst.   s(25) = (    -1          0          0      )    f =(  0.2500000 )
                  (     0         -1          0      )       (  0.2500000 )
                  (     0          0         -1      )       (  0.2500000 )

 cart.    s(25) = ( -1.0000000  0.0000000  0.0000000 )    f =( -0.3535534 )
                  (  0.0000000 -1.0000000  0.0000000 )       ( -0.3535534 )
                  (  0.0000000  0.0000000 -1.0000000 )       ( -0.3535534 )


      isym = 26     inv. 180 deg rotation - cart. axis [0,0,1]   

 cryst.   s(26) = (     1          0          0      )    f =(  0.2500000 )
                  (     1          0         -1      )       (  0.2500000 )
                  (     1         -1          0      )       (  0.2500000 )

 cart.    s(26) = (  1.0000000  0.0000000  0.0000000 )    f =( -0.3535534 )
                  (  0.0000000  1.0000000  0.0000000 )       ( -0.3535534 )
                  (  0.0000000  0.0000000 -1.0000000 )       ( -0.3535534 )


      isym = 27     inv. 180 deg rotation - cart. axis [0,1,0]   

 cryst.   s(27) = (     0          1         -1      )    f =(  0.2500000 )
                  (     0          1          0      )       (  0.2500000 )
                  (    -1          1          0      )       (  0.2500000 )

 cart.    s(27) = (  1.0000000  0.0000000  0.0000000 )    f =( -0.3535534 )
                  (  0.0000000 -1.0000000  0.0000000 )       ( -0.3535534 )
                  (  0.0000000  0.0000000  1.0000000 )       ( -0.3535534 )


      isym = 28     inv. 180 deg rotation - cart. axis [1,0,0]   

 cryst.   s(28) = (     0         -1          1      )    f =(  0.2500000 )
                  (    -1          0          1      )       (  0.2500000 )
                  (     0          0          1      )       (  0.2500000 )

 cart.    s(28) = ( -1.0000000  0.0000000  0.0000000 )    f =( -0.3535534 )
                  (  0.0000000  1.0000000  0.0000000 )       ( -0.3535534 )
                  (  0.0000000  0.0000000  1.0000000 )       ( -0.3535534 )


      isym = 29     inv. 180 deg rotation - cart. axis [1,1,0]   

 cryst.   s(29) = (    -1          0          0      )
                  (    -1          1          0      )
                  (    -1          0          1      )

 cart.    s(29) = (  0.0000000 -1.0000000  0.0000000 )
                  ( -1.0000000  0.0000000  0.0000000 )
                  (  0.0000000  0.0000000  1.0000000 )


      isym = 30     inv. 180 deg rotation - cart. axis [1,-1,0]  

 cryst.   s(30) = (     1          0          0      )
                  (     0          0          1      )
                  (     0          1          0      )

 cart.    s(30) = (  0.0000000  1.0000000  0.0000000 )
                  (  1.0000000  0.0000000  0.0000000 )
                  (  0.0000000  0.0000000  1.0000000 )


      isym = 31     inv.  90 deg rotation - cart. axis [0,0,-1]  

 cryst.   s(31) = (     0         -1          1      )
                  (     1         -1          0      )
                  (     0         -1          0      )

 cart.    s(31) = (  0.0000000 -1.0000000  0.0000000 )
                  (  1.0000000  0.0000000  0.0000000 )
                  (  0.0000000  0.0000000 -1.0000000 )


      isym = 32     inv.  90 deg rotation - cart. axis [0,0,1]   

 cryst.   s(32) = (     0          1         -1      )
                  (     0          0         -1      )
                  (     1          0         -1      )

 cart.    s(32) = (  0.0000000  1.0000000  0.0000000 )
                  ( -1.0000000  0.0000000  0.0000000 )
                  (  0.0000000  0.0000000 -1.0000000 )


      isym = 33     inv. 180 deg rotation - cart. axis [1,0,1]   

 cryst.   s(33) = (     1         -1          0      )
                  (     0         -1          0      )
                  (     0         -1          1      )

 cart.    s(33) = (  0.0000000  0.0000000 -1.0000000 )
                  (  0.0000000  1.0000000  0.0000000 )
                  ( -1.0000000  0.0000000  0.0000000 )


      isym = 34     inv. 180 deg rotation - cart. axis [-1,0,1]  

 cryst.   s(34) = (     0          0          1      )
                  (     0          1          0      )
                  (     1          0          0      )

 cart.    s(34) = (  0.0000000  0.0000000  1.0000000 )
                  (  0.0000000  1.0000000  0.0000000 )
                  (  1.0000000  0.0000000  0.0000000 )


      isym = 35     inv.  90 deg rotation - cart. axis [0,1,0]   

 cryst.   s(35) = (    -1          1          0      )
                  (    -1          0          1      )
                  (    -1          0          0      )

 cart.    s(35) = (  0.0000000  0.0000000 -1.0000000 )
                  (  0.0000000 -1.0000000  0.0000000 )
                  (  1.0000000  0.0000000  0.0000000 )


      isym = 36     inv.  90 deg rotation - cart. axis [0,-1,0]  

 cryst.   s(36) = (     0          0         -1      )
                  (     1          0         -1      )
                  (     0          1         -1      )

 cart.    s(36) = (  0.0000000  0.0000000  1.0000000 )
                  (  0.0000000 -1.0000000  0.0000000 )
                  ( -1.0000000  0.0000000  0.0000000 )


      isym = 37     inv. 180 deg rotation - cart. axis [0,1,1]   

 cryst.   s(37) = (     1          0         -1      )
                  (     0          1         -1      )
                  (     0          0         -1      )

 cart.    s(37) = (  1.0000000  0.0000000  0.0000000 )
                  (  0.0000000  0.0000000 -1.0000000 )
                  (  0.0000000 -1.0000000  0.0000000 )


      isym = 38     inv. 180 deg rotation - cart. axis [0,1,-1]  

 cryst.   s(38) = (     0          1          0      )
                  (     1          0          0      )
                  (     0          0          1      )

 cart.    s(38) = (  1.0000000  0.0000000  0.0000000 )
                  (  0.0000000  0.0000000  1.0000000 )
                  (  0.0000000  1.0000000  0.0000000 )


      isym = 39     inv.  90 deg rotation - cart. axis [-1,0,0]  

 cryst.   s(39) = (    -1          0          1      )
                  (    -1          0          0      )
                  (    -1          1          0      )

 cart.    s(39) = ( -1.0000000  0.0000000  0.0000000 )
                  (  0.0000000  0.0000000 -1.0000000 )
                  (  0.0000000  1.0000000  0.0000000 )


      isym = 40     inv.  90 deg rotation - cart. axis [1,0,0]   

 cryst.   s(40) = (     0         -1          0      )
                  (     0         -1          1      )
                  (     1         -1          0      )

 cart.    s(40) = ( -1.0000000  0.0000000  0.0000000 )
                  (  0.0000000  0.0000000  1.0000000 )
                  (  0.0000000 -1.0000000  0.0000000 )


      isym = 41     inv. 120 deg rotation - cart. axis [-1,-1,-1]

 cryst.   s(41) = (     0         -1          0      )    f =(  0.2500000 )
                  (     0          0         -1      )       (  0.2500000 )
                  (    -1          0          0      )       (  0.2500000 )

 cart.    s(41) = (  0.0000000 -1.0000000  0.0000000 )    f =( -0.3535534 )
                  (  0.0000000  0.0000000 -1.0000000 )       ( -0.3535534 )
                  ( -1.0000000  0.0000000  0.0000000 )       ( -0.3535534 )


      isym = 42     inv. 120 deg rotation - cart. axis [-1,1,1]  

 cryst.   s(42) = (     0          1          0      )    f =(  0.2500000 )
                  (    -1          1          0      )       (  0.2500000 )
                  (     0          1         -1      )       (  0.2500000 )

 cart.    s(42) = (  0.0000000  1.0000000  0.0000000 )    f =( -0.3535534 )
                  (  0.0000000  0.0000000 -1.0000000 )       ( -0.3535534 )
                  (  1.0000000  0.0000000  0.0000000 )       ( -0.3535534 )


      isym = 43     inv. 120 deg rotation - cart. axis [1,1,-1]  

 cryst.   s(43) = (    -1          0          1      )    f =(  0.2500000 )
                  (     0          0          1      )       (  0.2500000 )
                  (     0         -1          1      )       (  0.2500000 )

 cart.    s(43) = (  0.0000000 -1.0000000  0.0000000 )    f =( -0.3535534 )
                  (  0.0000000  0.0000000  1.0000000 )       ( -0.3535534 )
                  (  1.0000000  0.0000000  0.0000000 )       ( -0.3535534 )


      isym = 44     inv. 120 deg rotation - cart. axis [1,-1,1]  

 cryst.   s(44) = (     1          0         -1      )    f =(  0.2500000 )
                  (     1         -1          0      )       (  0.2500000 )
                  (     1          0          0      )       (  0.2500000 )

 cart.    s(44) = (  0.0000000  1.0000000  0.0000000 )    f =( -0.3535534 )
                  (  0.0000000  0.0000000  1.0000000 )       ( -0.3535534 )
                  ( -1.0000000  0.0000000  0.0000000 )       ( -0.3535534 )


      isym = 45     inv. 120 deg rotation - cart. axis [1,1,1]   

 cryst.   s(45) = (     0          0         -1      )    f =(  0.2500000 )
                  (    -1          0          0      )       (  0.2500000 )
                  (     0         -1          0      )       (  0.2500000 )

 cart.    s(45) = (  0.0000000  0.0000000 -1.0000000 )    f =( -0.3535534 )
                  ( -1.0000000  0.0000000  0.0000000 )       ( -0.3535534 )
                  (  0.0000000 -1.0000000  0.0000000 )       ( -0.3535534 )


      isym = 46     inv. 120 deg rotation - cart. axis [-1,1,-1] 

 cryst.   s(46) = (     0          0          1      )    f =(  0.2500000 )
                  (     0         -1          1      )       (  0.2500000 )
                  (    -1          0          1      )       (  0.2500000 )

 cart.    s(46) = (  0.0000000  0.0000000 -1.0000000 )    f =( -0.3535534 )
                  (  1.0000000  0.0000000  0.0000000 )       ( -0.3535534 )
                  (  0.0000000  1.0000000  0.0000000 )       ( -0.3535534 )


      isym = 47     inv. 120 deg rotation - cart. axis [1,-1,-1] 

 cryst.   s(47) = (     1         -1          0      )    f =(  0.2500000 )
                  (     1          0          0      )       (  0.2500000 )
                  (     1          0         -1      )       (  0.2500000 )

 cart.    s(47) = (  0.0000000  0.0000000  1.0000000 )    f =( -0.3535534 )
                  (  1.0000000  0.0000000  0.0000000 )       ( -0.3535534 )
                  (  0.0000000 -1.0000000  0.0000000 )       ( -0.3535534 )


      isym = 48     inv. 120 deg rotation - cart. axis [-1,-1,1] 

 cryst.   s(48) = (    -1          1          0      )    f =(  0.2500000 )
                  (     0          1         -1      )       (  0.2500000 )
                  (     0          1          0      )       (  0.2500000 )

 cart.    s(48) = (  0.0000000  0.0000000  1.0000000 )    f =( -0.3535534 )
                  ( -1.0000000  0.0000000  0.0000000 )       ( -0.3535534 )
                  (  0.0000000  1.0000000  0.0000000 )       ( -0.3535534 )


   Cartesian axes

     site n.     atom                  positions (alat units)
         1           Si  tau(   1) = (  -1.0606602  -1.0606602  -1.0606602  )
         2           Si  tau(   2) = (   0.0000000   0.0000000   0.0000000  )

   Crystallographic axes

     site n.     atom                  positions (cryst. coord.)
         1           Si  tau(   1) = (  0.7500000  0.7500000  0.7500000  )
         2           Si  tau(   2) = (  0.0000000  0.0000000  0.0000000  )

     number of k points=    47  Marzari-Vanderbilt smearing, width (Ry)=  0.0147
                       cart. coord. in units 2pi/alat
        k(    1) = (   0.0000000   0.0000000   0.0000000), wk =   0.0020000
        k(    2) = (   0.0707107  -0.0707107  -0.0707107), wk =   0.0160000
        k(    3) = (   0.1414214  -0.1414214  -0.1414214), wk =   0.0160000
        k(    4) = (   0.2121320  -0.2121320  -0.2121320), wk =   0.0160000
        k(    5) = (   0.2828427  -0.2828427  -0.2828427), wk =   0.0160000
        k(    6) = (  -0.3535534   0.3535534   0.3535534), wk =   0.0080000
        k(    7) = (   0.0000000   0.0000000  -0.1414214), wk =   0.0120000
        k(    8) = (   0.0707107  -0.0707107  -0.2121320), wk =   0.0480000
        k(    9) = (   0.1414214  -0.1414214  -0.2828427), wk =   0.0480000
        k(   10) = (   0.2121320  -0.2121320  -0.3535534), wk =   0.0480000
        k(   11) = (  -0.4242641   0.4242641   0.2828427), wk =   0.0480000
        k(   12) = (  -0.3535534   0.3535534   0.2121320), wk =   0.0480000
        k(   13) = (  -0.2828427   0.2828427   0.1414214), wk =   0.0480000
        k(   14) = (  -0.2121320   0.2121320   0.0707107), wk =   0.0480000
        k(   15) = (  -0.1414214   0.1414214  -0.0000000), wk =   0.0240000
        k(   16) = (   0.0000000   0.0000000  -0.2828427), wk =   0.0120000
        k(   17) = (   0.0707107  -0.0707107  -0.3535534), wk =   0.0480000
        k(   18) = (   0.1414214  -0.1414214  -0.4242641), wk =   0.0480000
        k(   19) = (  -0.4949747   0.4949747   0.2121320), wk =   0.0480000
        k(   20) = (  -0.4242641   0.4242641   0.1414214), wk =   0.0480000
        k(   21) = (  -0.3535534   0.3535534   0.0707107), wk =   0.0480000
        k(   22) = (  -0.2828427   0.2828427  -0.0000000), wk =   0.0240000
        k(   23) = (   0.0000000   0.0000000  -0.4242641), wk =   0.0120000
        k(   24) = (   0.0707107  -0.0707107  -0.4949747), wk =   0.0480000
        k(   25) = (  -0.5656854   0.5656854   0.1414214), wk =   0.0480000
        k(   26) = (  -0.4949747   0.4949747   0.0707107), wk =   0.0480000
        k(   27) = (  -0.4242641   0.4242641   0.0000000), wk =   0.0240000
        k(   28) = (   0.0000000   0.0000000  -0.5656854), wk =   0.0120000
        k(   29) = (  -0.6363961   0.6363961   0.0707107), wk =   0.0480000
        k(   30) = (  -0.5656854   0.5656854   0.0000000), wk =   0.0240000
        k(   31) = (   0.0000000   0.0000000   0.7071068), wk =   0.0060000
        k(   32) = (  -0.0000000  -0.1414214  -0.2828427), wk =   0.0480000
        k(   33) = (   0.0707107  -0.2121320  -0.3535534), wk =   0.0960000
        k(   34) = (  -0.5656854   0.4242641   0.2828427), wk =   0.0960000
        k(   35) = (  -0.4949747   0.3535534   0.2121320), wk =   0.0480000
        k(   36) = (   0.0000000  -0.1414214  -0.4242641), wk =   0.0480000
        k(   37) = (  -0.6363961   0.4949747   0.2121320), wk =   0.0960000
        k(   38) = (  -0.5656854   0.4242641   0.1414214), wk =   0.0960000
        k(   39) = (  -0.4949747   0.3535534   0.0707107), wk =   0.0960000
        k(   40) = (  -0.4242641   0.2828427  -0.0000000), wk =   0.0480000
        k(   41) = (  -0.7071068   0.5656854   0.1414214), wk =   0.0480000
        k(   42) = (  -0.6363961   0.4949747   0.0707107), wk =   0.0960000
        k(   43) = (  -0.5656854   0.4242641   0.0000000), wk =   0.0480000
        k(   44) = (   0.0000000  -0.1414214   0.7071068), wk =   0.0240000
        k(   45) = (  -0.7071068   0.4242641   0.1414214), wk =   0.0480000
        k(   46) = (  -0.6363961   0.3535534   0.0707107), wk =   0.0480000
        k(   47) = (  -0.0000000  -0.2828427   0.7071068), wk =   0.0240000

                       cryst. coord.
        k(    1) = (   0.0000000   0.0000000   0.0000000), wk =   0.0020000
        k(    2) = (   0.0000000   0.0000000   0.1000000), wk =   0.0160000
        k(    3) = (   0.0000000   0.0000000   0.2000000), wk =   0.0160000
        k(    4) = (   0.0000000   0.0000000   0.3000000), wk =   0.0160000
        k(    5) = (   0.0000000   0.0000000   0.4000000), wk =   0.0160000
        k(    6) = (   0.0000000   0.0000000  -0.5000000), wk =   0.0080000
        k(    7) = (  -0.0000000   0.1000000   0.1000000), wk =   0.0120000
        k(    8) = (   0.0000000   0.1000000   0.2000000), wk =   0.0480000
        k(    9) = (   0.0000000   0.1000000   0.3000000), wk =   0.0480000
        k(   10) = (   0.0000000   0.1000000   0.4000000), wk =   0.0480000
        k(   11) = (   0.0000000   0.1000000  -0.5000000), wk =   0.0480000
        k(   12) = (   0.0000000   0.1000000  -0.4000000), wk =   0.0480000
        k(   13) = (   0.0000000   0.1000000  -0.3000000), wk =   0.0480000
        k(   14) = (   0.0000000   0.1000000  -0.2000000), wk =   0.0480000
        k(   15) = (   0.0000000   0.1000000  -0.1000000), wk =   0.0240000
        k(   16) = (  -0.0000000   0.2000000   0.2000000), wk =   0.0120000
        k(   17) = (   0.0000000   0.2000000   0.3000000), wk =   0.0480000
        k(   18) = (   0.0000000   0.2000000   0.4000000), wk =   0.0480000
        k(   19) = (   0.0000000   0.2000000  -0.5000000), wk =   0.0480000
        k(   20) = (   0.0000000   0.2000000  -0.4000000), wk =   0.0480000
        k(   21) = (   0.0000000   0.2000000  -0.3000000), wk =   0.0480000
        k(   22) = (   0.0000000   0.2000000  -0.2000000), wk =   0.0240000
        k(   23) = (  -0.0000000   0.3000000   0.3000000), wk =   0.0120000
        k(   24) = (   0.0000000   0.3000000   0.4000000), wk =   0.0480000
        k(   25) = (   0.0000000   0.3000000  -0.5000000), wk =   0.0480000
        k(   26) = (   0.0000000   0.3000000  -0.4000000), wk =   0.0480000
        k(   27) = (   0.0000000   0.3000000  -0.3000000), wk =   0.0240000
        k(   28) = (  -0.0000000   0.4000000   0.4000000), wk =   0.0120000
        k(   29) = (   0.0000000   0.4000000  -0.5000000), wk =   0.0480000
        k(   30) = (   0.0000000   0.4000000  -0.4000000), wk =   0.0240000
        k(   31) = (   0.0000000  -0.5000000  -0.5000000), wk =   0.0060000
        k(   32) = (   0.1000000   0.2000000   0.3000000), wk =   0.0480000
        k(   33) = (   0.1000000   0.2000000   0.4000000), wk =   0.0960000
        k(   34) = (   0.1000000   0.2000000  -0.5000000), wk =   0.0960000
        k(   35) = (   0.1000000   0.2000000  -0.4000000), wk =   0.0480000
        k(   36) = (   0.1000000   0.3000000   0.4000000), wk =   0.0480000
        k(   37) = (   0.1000000   0.3000000  -0.5000000), wk =   0.0960000
        k(   38) = (   0.1000000   0.3000000  -0.4000000), wk =   0.0960000
        k(   39) = (   0.1000000   0.3000000  -0.3000000), wk =   0.0960000
        k(   40) = (   0.1000000   0.3000000  -0.2000000), wk =   0.0480000
        k(   41) = (   0.1000000   0.4000000  -0.5000000), wk =   0.0480000
        k(   42) = (   0.1000000   0.4000000  -0.4000000), wk =   0.0960000
        k(   43) = (   0.1000000   0.4000000  -0.3000000), wk =   0.0480000
        k(   44) = (   0.1000000  -0.5000000  -0.4000000), wk =   0.0240000
        k(   45) = (   0.2000000   0.4000000  -0.4000000), wk =   0.0480000
        k(   46) = (   0.2000000   0.4000000  -0.3000000), wk =   0.0480000
        k(   47) = (   0.2000000  -0.5000000  -0.3000000), wk =   0.0240000

     Dense  grid:    16889 G-vectors     FFT dimensions: (  36,  36,  36)

     Smooth grid:     5985 G-vectors     FFT dimensions: (  32,  32,  32)

     Dynamical RAM for                 wfc:       0.09 MB

     Dynamical RAM for     wfc (w. buffer):       0.09 MB

     Dynamical RAM for           str. fact:       0.26 MB

     Dynamical RAM for           local pot:       0.00 MB

     Dynamical RAM for          nlocal pot:       0.41 MB

     Dynamical RAM for                qrad:       1.44 MB

     Dynamical RAM for          rho,v,vnew:       1.84 MB

     Dynamical RAM for           G-vectors:       1.01 MB

     Dynamical RAM for          h,s,v(r/c):       0.05 MB

     Dynamical RAM for          <psi|beta>:       0.00 MB

     Dynamical RAM for                 psi:       0.37 MB

     Dynamical RAM for                hpsi:       0.37 MB

     Dynamical RAM for                spsi:       0.37 MB

     Dynamical RAM for      wfcinit/wfcrot:       0.18 MB

     Dynamical RAM for           addusdens:      48.45 MB

     Estimated static dynamical RAM per process >       7.35 MB

     Estimated max dynamical RAM per process >      55.80 MB

     The potential is recalculated from file :
     ./Si.save/charge-density

     Starting wfcs are    8 randomized atomic wfcs

     Band Structure Calculation
     Davidson diagonalization with overlap

     Computing kpt #:     1
     total cpu time spent up to now is        1.3 secs

     Computing kpt #:     2
     total cpu time spent up to now is        1.4 secs

     Computing kpt #:     3
     total cpu time spent up to now is        1.5 secs

     Computing kpt #:     4
     total cpu time spent up to now is        1.6 secs

     Computing kpt #:     5
     total cpu time spent up to now is        1.6 secs

     Computing kpt #:     6
     total cpu time spent up to now is        1.7 secs

     Computing kpt #:     7
     total cpu time spent up to now is        1.8 secs

     Computing kpt #:     8
     total cpu time spent up to now is        1.9 secs

     Computing kpt #:     9
     total cpu time spent up to now is        2.0 secs

     Computing kpt #:    10
     total cpu time spent up to now is        2.1 secs

     Computing kpt #:    11
     total cpu time spent up to now is        2.1 secs

     Computing kpt #:    12
     total cpu time spent up to now is        2.2 secs

     Computing kpt #:    13
     total cpu time spent up to now is        2.3 secs

     Computing kpt #:    14
     total cpu time spent up to now is        2.4 secs

     Computing kpt #:    15
     total cpu time spent up to now is        2.5 secs

     Computing kpt #:    16
     total cpu time spent up to now is        2.5 secs

     Computing kpt #:    17
     total cpu time spent up to now is        2.6 secs

     Computing kpt #:    18
     total cpu time spent up to now is        2.7 secs

     Computing kpt #:    19
     total cpu time spent up to now is        2.8 secs

     Computing kpt #:    20
     total cpu time spent up to now is        2.9 secs

     Computing kpt #:    21
     total cpu time spent up to now is        3.0 secs

     Computing kpt #:    22
     total cpu time spent up to now is        3.0 secs

     Computing kpt #:    23
     total cpu time spent up to now is        3.1 secs

     Computing kpt #:    24
     total cpu time spent up to now is        3.2 secs

     Computing kpt #:    25
     total cpu time spent up to now is        3.3 secs

     Computing kpt #:    26
     total cpu time spent up to now is        3.4 secs

     Computing kpt #:    27
     total cpu time spent up to now is        3.5 secs

     Computing kpt #:    28
     total cpu time spent up to now is        3.5 secs

     Computing kpt #:    29
     total cpu time spent up to now is        3.6 secs

     Computing kpt #:    30
     total cpu time spent up to now is        3.7 secs

     Computing kpt #:    31
     total cpu time spent up to now is        3.8 secs

     Computing kpt #:    32
     total cpu time spent up to now is        3.9 secs

     Computing kpt #:    33
     total cpu time spent up to now is        4.0 secs

     Computing kpt #:    34
     total cpu time spent up to now is        4.0 secs

     Computing kpt #:    35
     total cpu time spent up to now is        4.2 secs

     Computing kpt #:    36
     total cpu time spent up to now is        4.2 secs

     Computing kpt #:    37
     total cpu time spent up to now is        4.3 secs

     Computing kpt #:    38
     total cpu time spent up to now is        4.4 secs

     Computing kpt #:    39
     total cpu time spent up to now is        4.5 secs

     Computing kpt #:    40
     total cpu time spent up to now is        4.6 secs

     Computing kpt #:    41
     total cpu time spent up to now is        4.7 secs

     Computing kpt #:    42
     total cpu time spent up to now is        4.8 secs

     Computing kpt #:    43
     total cpu time spent up to now is        4.9 secs

     Computing kpt #:    44
     total cpu time spent up to now is        4.9 secs

     Computing kpt #:    45
     total cpu time spent up to now is        5.0 secs

     Computing kpt #:    46
     total cpu time spent up to now is        5.1 secs

     Computing kpt #:    47
     total cpu time spent up to now is        5.2 secs

     ethr =  5.00E-12,  avg # of iterations = 23.9

     total cpu time spent up to now is        5.2 secs

     End of band structure calculation

          k = 0.0000 0.0000 0.0000 (   749 PWs)   bands (ev):

    -5.8369   6.1445   6.1445   6.1445   8.6661   8.6661   8.6661   9.4422

     occupation numbers 
     1.0000   0.4964   0.4964   0.4964   0.0000   0.0000   0.0000   0.0000

          k = 0.0707-0.0707-0.0707 (   743 PWs)   bands (ev):

    -5.7057   4.9872   5.9436   5.9436   8.6643   8.9608   8.9608  10.3731

     occupation numbers 
     1.0000   1.0000   1.0603   1.0603   0.0000   0.0000   0.0000   0.0000

          k = 0.1414-0.1414-0.1414 (   751 PWs)   bands (ev):

    -5.3182   3.1152   5.5602   5.5602   8.2972   9.4686   9.4686  12.1236

     occupation numbers 
     1.0000   1.0000   1.0012   1.0012   0.0000   0.0000   0.0000   0.0000

          k = 0.2121-0.2121-0.2121 (   757 PWs)   bands (ev):

    -4.7006   1.3223   5.2247   5.2247   7.9301   9.6305   9.6305  13.6626

     occupation numbers 
     1.0000   1.0000   1.0000   1.0000   0.0000   0.0000   0.0000   0.0000

          k = 0.2828-0.2828-0.2828 (   763 PWs)   bands (ev):

    -3.9487  -0.1611   5.0125   5.0125   7.6887   9.5049   9.5049  13.7912

     occupation numbers 
     1.0000   1.0000   1.0000   1.0000   0.0000   0.0000   0.0000   0.0000

          k =-0.3536 0.3536 0.3536 (   754 PWs)   bands (ev):

    -3.4916  -0.8654   4.9411   4.9411   7.6061   9.4264   9.4264  13.6701

     occupation numbers 
     1.0000   1.0000   1.0000   1.0000   0.0000   0.0000   0.0000   0.0000

          k = 0.0000 0.0000-0.1414 (   745 PWs)   bands (ev):

    -5.6616   5.2007   5.5598   5.5598   8.2705   9.4640   9.4640  10.2729

     occupation numbers 
     1.0000   1.0000   1.0011   1.0011   0.0000   0.0000   0.0000   0.0000

          k = 0.0707-0.0707-0.2121 (   752 PWs)   bands (ev):

    -5.3584   3.6789   5.1216   5.2935   8.3256   9.5107  10.1190  11.0597

     occupation numbers 
     1.0000   1.0000   1.0000   1.0000   0.0000   0.0000   0.0000   0.0000

          k = 0.1414-0.1414-0.2828 (   756 PWs)   bands (ev):

    -4.8131   1.9104   4.8022   4.8556   8.4544   9.4864  10.3930  11.3846

     occupation numbers 
     1.0000   1.0000   1.0000   1.0000   0.0000   0.0000   0.0000   0.0000

          k = 0.2121-0.2121-0.3536 (   760 PWs)   bands (ev):

    -4.0854   0.3298   4.4412   4.6558   8.3093   9.4310  10.2042  12.4552

     occupation numbers 
     1.0000   1.0000   1.0000   1.0000   0.0000   0.0000   0.0000   0.0000

          k =-0.4243 0.4243 0.2828 (   757 PWs)   bands (ev):

    -3.4381  -0.7156   4.1489   4.6907   8.2243   9.3915   9.9315  13.8251

     occupation numbers 
     1.0000   1.0000   1.0000   1.0000   0.0000   0.0000   0.0000   0.0000

          k =-0.3536 0.3536 0.2121 (   755 PWs)   bands (ev):

    -3.6076  -0.4643   4.0186   4.8930   8.2891   9.5216   9.7754  14.0548

     occupation numbers 
     1.0000   1.0000   1.0000   1.0000   0.0000   0.0000   0.0000   0.0000

          k =-0.2828 0.2828 0.1414 (   754 PWs)   bands (ev):

    -4.3424   0.8262   4.0769   5.2304   8.4978   9.7102   9.7788  13.0695

     occupation numbers 
     1.0000   1.0000   1.0000   1.0000   0.0000   0.0000   0.0000   0.0000

          k =-0.2121 0.2121 0.0707 (   757 PWs)   bands (ev):

    -5.0212   2.4834   4.3516   5.6394   8.8131   9.4738   9.8029  12.0299

     occupation numbers 
     1.0000   1.0000   1.0000   1.0059   0.0000   0.0000   0.0000   0.0000

          k =-0.1414 0.1414-0.0000 (   763 PWs)   bands (ev):

    -5.4886   4.1019   4.9647   5.9686   9.0252   9.0818   9.2040  11.2850

     occupation numbers 
     1.0000   1.0000   1.0000   1.0309   0.0000   0.0000   0.0000   0.0000

          k = 0.0000 0.0000-0.2828 (   745 PWs)   bands (ev):

    -5.1399   3.5154   4.6418   4.6418   7.5255   9.9452  11.0066  11.0066

     occupation numbers 
     1.0000   1.0000   1.0000   1.0000   0.0000   0.0000   0.0000   0.0000

          k = 0.0707-0.0707-0.3536 (   746 PWs)   bands (ev):

    -4.6729   2.2644   4.1267   4.2923   7.6231   9.5052  11.2570  11.5947

     occupation numbers 
     1.0000   1.0000   1.0000   1.0000   0.0000   0.0000   0.0000   0.0000

          k = 0.1414-0.1414-0.4243 (   752 PWs)   bands (ev):

    -3.9948   0.8194   3.4908   4.1329   7.8316  10.1468  11.0269  11.5380

     occupation numbers 
     1.0000   1.0000   1.0000   1.0000   0.0000   0.0000   0.0000   0.0000

          k =-0.4950 0.4950 0.2121 (   747 PWs)   bands (ev):

    -3.2580  -0.3739   2.9769   4.1784   7.8940  10.7810  11.2015  11.7229

     occupation numbers 
     1.0000   1.0000   1.0000   1.0000   0.0000   0.0000   0.0000   0.0000

          k =-0.4243 0.4243 0.1414 (   747 PWs)   bands (ev):

    -3.1027  -0.5850   2.6750   4.4193   8.1150  10.6810  10.8963  13.6395

     occupation numbers 
     1.0000   1.0000   1.0000   1.0000   0.0000   0.0000   0.0000   0.0000

          k =-0.3536 0.3536 0.0707 (   751 PWs)   bands (ev):

    -3.7626   0.4109   2.6509   4.8204   8.5239  10.6292  10.6852  12.7755

     occupation numbers 
     1.0000   1.0000   1.0000   1.0000   0.0000   0.0000   0.0000   0.0000

          k =-0.2828 0.2828-0.0000 (   746 PWs)   bands (ev):

    -4.4841   1.6560   3.1041   5.2953   8.9756  10.0960  10.3897  11.7971

     occupation numbers 
     1.0000   1.0000   1.0000   1.0000   0.0000   0.0000   0.0000   0.0000

          k = 0.0000 0.0000-0.4243 (   745 PWs)   bands (ev):

    -4.2841   1.7240   3.8972   3.8972   6.9110   8.4528  12.7606  12.7606

     occupation numbers 
     1.0000   1.0000   1.0000   1.0000   0.0000   0.0000   0.0000   0.0000

          k = 0.0707-0.0707-0.4950 (   752 PWs)   bands (ev):

    -3.6693   0.7170   3.2577   3.6920   7.0989   8.2881  13.0522  13.1747

     occupation numbers 
     1.0000   1.0000   1.0000   1.0000   0.0000   0.0000   0.0000   0.0000

          k =-0.5657 0.5657 0.1414 (   756 PWs)   bands (ev):

    -2.9149  -0.2928   2.4147   3.6993   7.2714   9.4407  12.8631  12.9161

     occupation numbers 
     1.0000   1.0000   1.0000   1.0000   0.0000   0.0000   0.0000   0.0000

          k =-0.4950 0.4950 0.0707 (   741 PWs)   bands (ev):

    -2.4900  -0.7738   1.8537   3.9168   7.5070  11.2475  12.5149  12.7029

     occupation numbers 
     1.0000   1.0000   1.0000   1.0000   0.0000   0.0000   0.0000   0.0000

          k =-0.4243 0.4243 0.0000 (   752 PWs)   bands (ev):

    -3.0323  -0.1813   1.8263   4.3164   7.9603  11.8515  12.1142  12.9162

     occupation numbers 
     1.0000   1.0000   1.0000   1.0000   0.0000   0.0000   0.0000   0.0000

          k = 0.0000 0.0000-0.5657 (   753 PWs)   bands (ev):

    -3.1182  -0.0402   3.4307   3.4307   6.6206   7.3438  14.6105  14.6105

     occupation numbers 
     1.0000   1.0000   1.0000   1.0000   0.0001   0.0000   0.0000   0.0000

          k =-0.6364 0.6364 0.0707 (   753 PWs)   bands (ev):

    -2.3866  -0.8817   2.8292   3.3822   6.8532   7.6208  14.8508  14.9427

     occupation numbers 
     1.0000   1.0000   1.0000   1.0000   0.0000   0.0000   0.0000   0.0000

          k =-0.5657 0.5657 0.0000 (   746 PWs)   bands (ev):

    -1.9045  -1.3050   2.0296   3.5507   7.0674   9.2130  14.1951  14.7501

     occupation numbers 
     1.0000   1.0000   1.0000   1.0000   0.0000   0.0000   0.0000   0.0000

          k = 0.0000 0.0000 0.7071 (   740 PWs)   bands (ev):

    -1.6826  -1.6826   3.2727   3.2727   6.7444   6.7444  16.1906  16.1906

     occupation numbers 
     1.0000   1.0000   1.0000   1.0000   0.0000   0.0000   0.0000   0.0000

          k =-0.0000-0.1414-0.2828 (   752 PWs)   bands (ev):

    -4.9740   2.7595   4.0352   5.1655   8.4271   9.8311  10.6602  10.7705

     occupation numbers 
     1.0000   1.0000   1.0000   1.0000   0.0000   0.0000   0.0000   0.0000

          k = 0.0707-0.2121-0.3536 (   758 PWs)   bands (ev):

    -4.3603   1.3443   3.4435   4.7861   8.7762   9.7050  10.7788  11.2183

     occupation numbers 
     1.0000   1.0000   1.0000   1.0000   0.0000   0.0000   0.0000   0.0000

          k =-0.5657 0.4243 0.2828 (   752 PWs)   bands (ev):

    -3.6089  -0.0273   3.2133   4.4323   8.8295   9.3568  11.1548  12.1251

     occupation numbers 
     1.0000   1.0000   1.0000   1.0000   0.0000   0.0000   0.0000   0.0000

          k =-0.4950 0.3536 0.2121 (   752 PWs)   bands (ev):

    -3.1444  -0.7117   3.1542   4.2930   8.8640   9.1606  11.1123  13.8607

     occupation numbers 
     1.0000   1.0000   1.0000   1.0000   0.0000   0.0000   0.0000   0.0000

          k = 0.0000-0.1414-0.4243 (   750 PWs)   bands (ev):

    -4.1335   1.3657   3.3039   4.0387   7.8426   9.1071  11.3003  12.6464

     occupation numbers 
     1.0000   1.0000   1.0000   1.0000   0.0000   0.0000   0.0000   0.0000

          k =-0.6364 0.4950 0.2121 (   750 PWs)   bands (ev):

    -3.4099   0.2601   2.6783   3.7044   8.2196   9.8154  10.9153  13.0359

     occupation numbers 
     1.0000   1.0000   1.0000   1.0000   0.0000   0.0000   0.0000   0.0000

          k =-0.5657 0.4243 0.1414 (   745 PWs)   bands (ev):

    -2.7538  -0.6104   2.2664   3.6481   8.4005  10.4427  11.5867  12.9645

     occupation numbers 
     1.0000   1.0000   1.0000   1.0000   0.0000   0.0000   0.0000   0.0000

          k =-0.4950 0.3536 0.0707 (   749 PWs)   bands (ev):

    -2.9569  -0.3487   2.1125   3.8909   8.7479  10.1880  12.0239  12.8184

     occupation numbers 
     1.0000   1.0000   1.0000   1.0000   0.0000   0.0000   0.0000   0.0000

          k =-0.4243 0.2828-0.0000 (   756 PWs)   bands (ev):

    -3.6974   0.6061   2.4135   4.3366   9.2552   9.7401  10.7795  12.3552

     occupation numbers 
     1.0000   1.0000   1.0000   1.0000   0.0000   0.0000   0.0000   0.0000

          k =-0.7071 0.5657 0.1414 (   754 PWs)   bands (ev):

    -2.9986  -0.1248   2.8910   3.2222   7.5405   8.1197  12.8463  14.5971

     occupation numbers 
     1.0000   1.0000   1.0000   1.0000   0.0000   0.0000   0.0000   0.0000

          k =-0.6364 0.4950 0.0707 (   743 PWs)   bands (ev):

    -2.2556  -0.9009   2.1752   3.1296   7.8884   9.3429  12.4372  14.2199

     occupation numbers 
     1.0000   1.0000   1.0000   1.0000   0.0000   0.0000   0.0000   0.0000

          k =-0.5657 0.4243 0.0000 (   740 PWs)   bands (ev):

    -2.2583  -0.8764   1.7525   3.4020   8.2200  11.1730  12.0479  12.3571

     occupation numbers 
     1.0000   1.0000   1.0000   1.0000   0.0000   0.0000   0.0000   0.0000

          k = 0.0000-0.1414 0.7071 (   750 PWs)   bands (ev):

    -1.6279  -1.6279   2.8487   2.8487   7.6120   7.6120  14.5787  14.5787

     occupation numbers 
     1.0000   1.0000   1.0000   1.0000   0.0000   0.0000   0.0000   0.0000

          k =-0.7071 0.4243 0.1414 (   750 PWs)   bands (ev):

    -2.6741  -0.4233   2.1160   3.1150   9.4656   9.8226  10.5206  13.8648

     occupation numbers 
     1.0000   1.0000   1.0000   1.0000   0.0000   0.0000   0.0000   0.0000

          k =-0.6364 0.3536 0.0707 (   740 PWs)   bands (ev):

    -2.1591  -0.9343   1.9556   2.8601   9.7284  10.0656  11.4698  11.9261

     occupation numbers 
     1.0000   1.0000   1.0000   1.0000   0.0000   0.0000   0.0000   0.0000

          k =-0.0000-0.2828 0.7071 (   746 PWs)   bands (ev):

    -1.5311  -1.5311   2.3218   2.3218   9.4937   9.4937  12.0074  12.0074

     occupation numbers 
     1.0000   1.0000   1.0000   1.0000   0.0000   0.0000   0.0000   0.0000

     the Fermi energy is     6.1713 ev

     Writing output data file Si.save/

     init_run     :      0.35s CPU      0.50s WALL (       1 calls)
     electrons    :      3.84s CPU      3.94s WALL (       1 calls)

     Called by init_run:
     wfcinit      :      0.00s CPU      0.00s WALL (       1 calls)
     wfcinit:atom :      0.00s CPU      0.01s WALL (      47 calls)
     wfcinit:wfcr :      0.17s CPU      0.18s WALL (      47 calls)
     potinit      :      0.02s CPU      0.03s WALL (       1 calls)
     hinit0       :      0.29s CPU      0.30s WALL (       1 calls)

     Called by electrons:
     c_bands      :      3.84s CPU      3.94s WALL (       1 calls)
     v_of_rho     :      0.02s CPU      0.02s WALL (       1 calls)
     v_h          :      0.00s CPU      0.00s WALL (       1 calls)
     v_xc         :      0.02s CPU      0.02s WALL (       1 calls)
     newd         :      0.03s CPU      0.17s WALL (       1 calls)

     Called by c_bands:
     init_us_2    :      0.01s CPU      0.01s WALL (      47 calls)
     cegterg      :      3.58s CPU      3.66s WALL (      80 calls)

     Called by sum_band:

     Called by *egterg:
     h_psi        :      2.62s CPU      2.69s WALL (    1248 calls)
     s_psi        :      0.23s CPU      0.24s WALL (    1248 calls)
     g_psi        :      0.03s CPU      0.03s WALL (    1121 calls)
     cdiaghg      :      0.17s CPU      0.18s WALL (    1168 calls)
     cegterg:over :      0.26s CPU      0.27s WALL (    1121 calls)
     cegterg:upda :      0.19s CPU      0.19s WALL (    1121 calls)
     cegterg:last :      0.17s CPU      0.17s WALL (     265 calls)

     Called by h_psi:
     h_psi:pot    :      2.61s CPU      2.68s WALL (    1248 calls)
     h_psi:calbec :      0.25s CPU      0.26s WALL (    1248 calls)
     vloc_psi     :      2.12s CPU      2.18s WALL (    1248 calls)
     add_vuspsi   :      0.24s CPU      0.24s WALL (    1248 calls)

     General routines
     calbec       :      0.25s CPU      0.26s WALL (    1248 calls)
     fft          :      0.01s CPU      0.02s WALL (      13 calls)
     ffts         :      0.00s CPU      0.00s WALL (       1 calls)
     fftw         :      1.68s CPU      1.72s WALL (   12830 calls)
     interpolate  :      0.00s CPU      0.00s WALL (       1 calls)
     davcio       :      0.01s CPU      0.01s WALL (      94 calls)

     Parallel routines

     PWSCF        :      4.94s CPU      5.23s WALL


   This run was terminated on:   6:50:13  15Mar2023            

=------------------------------------------------------------------------------=
   JOB DONE.
=------------------------------------------------------------------------------=
