
     Program PWSCF v.6.4.1 starts on 15Mar2023 at  6:38:26 

     This program is part of the open-source Quantum ESPRESSO suite
     for quantum simulation of materials; please cite
         "P. Giannozzi et al., J. Phys.:Condens. Matter 21 395502 (2009);
         "P. Giannozzi et al., J. Phys.:Condens. Matter 29 465901 (2017);
          URL http://www.quantum-espresso.org", 
     in publications or presentations arising from this work. More details at
     http://www.quantum-espresso.org/quote

     Parallel version (MPI), running on     1 processors

     MPI processes distributed on     1 nodes
     Waiting for input...
     Reading input from standard input

     Current dimensions of program PWSCF are:
     Max number of different atomic species (ntypx) = 10
     Max number of k-points (npk) =  40000
     Max angular momentum in pseudopotentials (lmaxx) =  3

     Subspace diagonalization in iterative solution of the eigenvalue problem:
     a serial algorithm will be used

     Message from routine setup:
     DEPRECATED: symmetry with ibrav=0, use correct ibrav instead

     G-vector sticks info
     --------------------
     sticks:   dense  smooth     PW     G-vecs:    dense   smooth      PW
     Sum         871     433    151                16961     5985    1139



     bravais-lattice index     =            0
     lattice parameter (alat)  =       7.2741  a.u.
     unit-cell volume          =     272.1571 (a.u.)^3
     number of atoms/cell      =            2
     number of atomic types    =            1
     number of electrons       =         8.00
     number of Kohn-Sham states=            8
     kinetic-energy cutoff     =      30.0000  Ry
     charge density cutoff     =     240.0000  Ry
     convergence threshold     =      4.0E-10
     mixing beta               =       0.4000
     number of iterations used =            8  plain     mixing
     Exchange-correlation      = PBESOL ( 1  4 10  8 0 0)
     nstep                     =           50


     celldm(1)=   7.274083  celldm(2)=   0.000000  celldm(3)=   0.000000
     celldm(4)=   0.000000  celldm(5)=   0.000000  celldm(6)=   0.000000

     crystal axes: (cart. coord. in units of alat)
               a(1) = (  -0.707107  -0.707107   0.000000 )  
               a(2) = (  -0.707107   0.000000  -0.707107 )  
               a(3) = (  -0.000000  -0.707107  -0.707107 )  

     reciprocal axes: (cart. coord. in units 2 pi/alat)
               b(1) = ( -0.707107 -0.707107  0.707107 )  
               b(2) = ( -0.707107  0.707107 -0.707107 )  
               b(3) = (  0.707107 -0.707107 -0.707107 )  


     PseudoPot. # 1 for Si read from file:
     ./Si.pbesol-n-rrkjus_psl.1.0.0.UPF
     MD5 check sum: c4212819de858c94c3a1644338846ac9
     Pseudo is Ultrasoft + core correction, Zval =  4.0
     Generated using "atomic" code by A. Dal Corso v.6.0 svn rev. 13079
     Using radial grid of 1141 points,  6 beta functions with: 
                l(1) =   0
                l(2) =   0
                l(3) =   1
                l(4) =   1
                l(5) =   2
                l(6) =   2
     Q(r) pseudized with 0 coefficients 


     atomic species   valence    mass     pseudopotential
        Si             4.00    28.08550     Si( 1.00)

     48 Sym. Ops., with inversion, found (24 have fractional translation)


                                    s                        frac. trans.

      isym =  1     identity                                     

 cryst.   s( 1) = (     1          0          0      )
                  (     0          1          0      )
                  (     0          0          1      )

 cart.    s( 1) = (  1.0000000  0.0000000  0.0000000 )
                  (  0.0000000  1.0000000  0.0000000 )
                  (  0.0000000  0.0000000  1.0000000 )


      isym =  2     180 deg rotation - cart. axis [0,0,1]        

 cryst.   s( 2) = (    -1          0          0      )
                  (    -1          0          1      )
                  (    -1          1          0      )

 cart.    s( 2) = ( -1.0000000  0.0000000  0.0000000 )
                  (  0.0000000 -1.0000000  0.0000000 )
                  (  0.0000000  0.0000000  1.0000000 )


      isym =  3     180 deg rotation - cart. axis [0,1,0]        

 cryst.   s( 3) = (     0         -1          1      )
                  (     0         -1          0      )
                  (     1         -1          0      )

 cart.    s( 3) = ( -1.0000000  0.0000000  0.0000000 )
                  (  0.0000000  1.0000000  0.0000000 )
                  (  0.0000000  0.0000000 -1.0000000 )


      isym =  4     180 deg rotation - cart. axis [1,0,0]        

 cryst.   s( 4) = (     0          1         -1      )
                  (     1          0         -1      )
                  (     0          0         -1      )

 cart.    s( 4) = (  1.0000000  0.0000000  0.0000000 )
                  (  0.0000000 -1.0000000  0.0000000 )
                  (  0.0000000  0.0000000 -1.0000000 )


      isym =  5     180 deg rotation - cart. axis [1,1,0]        

 cryst.   s( 5) = (     1          0          0      )    f =(  0.2500000 )
                  (     1         -1          0      )       (  0.2500000 )
                  (     1          0         -1      )       (  0.2500000 )

 cart.    s( 5) = (  0.0000000  1.0000000  0.0000000 )    f =( -0.3535534 )
                  (  1.0000000  0.0000000  0.0000000 )       ( -0.3535534 )
                  (  0.0000000  0.0000000 -1.0000000 )       ( -0.3535534 )


      isym =  6     180 deg rotation - cart. axis [1,-1,0]       

 cryst.   s( 6) = (    -1          0          0      )    f =(  0.2500000 )
                  (     0          0         -1      )       (  0.2500000 )
                  (     0         -1          0      )       (  0.2500000 )

 cart.    s( 6) = (  0.0000000 -1.0000000  0.0000000 )    f =( -0.3535534 )
                  ( -1.0000000  0.0000000  0.0000000 )       ( -0.3535534 )
                  (  0.0000000  0.0000000 -1.0000000 )       ( -0.3535534 )


      isym =  7      90 deg rotation - cart. axis [0,0,-1]       

 cryst.   s( 7) = (     0          1         -1      )    f =(  0.2500000 )
                  (    -1          1          0      )       (  0.2500000 )
                  (     0          1          0      )       (  0.2500000 )

 cart.    s( 7) = (  0.0000000  1.0000000  0.0000000 )    f =( -0.3535534 )
                  ( -1.0000000  0.0000000  0.0000000 )       ( -0.3535534 )
                  (  0.0000000  0.0000000  1.0000000 )       ( -0.3535534 )


      isym =  8      90 deg rotation - cart. axis [0,0,1]        

 cryst.   s( 8) = (     0         -1          1      )    f =(  0.2500000 )
                  (     0          0          1      )       (  0.2500000 )
                  (    -1          0          1      )       (  0.2500000 )

 cart.    s( 8) = (  0.0000000 -1.0000000  0.0000000 )    f =( -0.3535534 )
                  (  1.0000000  0.0000000  0.0000000 )       ( -0.3535534 )
                  (  0.0000000  0.0000000  1.0000000 )       ( -0.3535534 )


      isym =  9     180 deg rotation - cart. axis [1,0,1]        

 cryst.   s( 9) = (    -1          1          0      )    f =(  0.2500000 )
                  (     0          1          0      )       (  0.2500000 )
                  (     0          1         -1      )       (  0.2500000 )

 cart.    s( 9) = (  0.0000000  0.0000000  1.0000000 )    f =( -0.3535534 )
                  (  0.0000000 -1.0000000  0.0000000 )       ( -0.3535534 )
                  (  1.0000000  0.0000000  0.0000000 )       ( -0.3535534 )


      isym = 10     180 deg rotation - cart. axis [-1,0,1]       

 cryst.   s(10) = (     0          0         -1      )    f =(  0.2500000 )
                  (     0         -1          0      )       (  0.2500000 )
                  (    -1          0          0      )       (  0.2500000 )

 cart.    s(10) = (  0.0000000  0.0000000 -1.0000000 )    f =( -0.3535534 )
                  (  0.0000000 -1.0000000  0.0000000 )       ( -0.3535534 )
                  ( -1.0000000  0.0000000  0.0000000 )       ( -0.3535534 )


      isym = 11      90 deg rotation - cart. axis [0,1,0]        

 cryst.   s(11) = (     1         -1          0      )    f =(  0.2500000 )
                  (     1          0         -1      )       (  0.2500000 )
                  (     1          0          0      )       (  0.2500000 )

 cart.    s(11) = (  0.0000000  0.0000000  1.0000000 )    f =( -0.3535534 )
                  (  0.0000000  1.0000000  0.0000000 )       ( -0.3535534 )
                  ( -1.0000000  0.0000000  0.0000000 )       ( -0.3535534 )


      isym = 12      90 deg rotation - cart. axis [0,-1,0]       

 cryst.   s(12) = (     0          0          1      )    f =(  0.2500000 )
                  (    -1          0          1      )       (  0.2500000 )
                  (     0         -1          1      )       (  0.2500000 )

 cart.    s(12) = (  0.0000000  0.0000000 -1.0000000 )    f =( -0.3535534 )
                  (  0.0000000  1.0000000  0.0000000 )       ( -0.3535534 )
                  (  1.0000000  0.0000000  0.0000000 )       ( -0.3535534 )


      isym = 13     180 deg rotation - cart. axis [0,1,1]        

 cryst.   s(13) = (    -1          0          1      )    f =(  0.2500000 )
                  (     0         -1          1      )       (  0.2500000 )
                  (     0          0          1      )       (  0.2500000 )

 cart.    s(13) = ( -1.0000000  0.0000000  0.0000000 )    f =( -0.3535534 )
                  (  0.0000000  0.0000000  1.0000000 )       ( -0.3535534 )
                  (  0.0000000  1.0000000  0.0000000 )       ( -0.3535534 )


      isym = 14     180 deg rotation - cart. axis [0,1,-1]       

 cryst.   s(14) = (     0         -1          0      )    f =(  0.2500000 )
                  (    -1          0          0      )       (  0.2500000 )
                  (     0          0         -1      )       (  0.2500000 )

 cart.    s(14) = ( -1.0000000  0.0000000  0.0000000 )    f =( -0.3535534 )
                  (  0.0000000  0.0000000 -1.0000000 )       ( -0.3535534 )
                  (  0.0000000 -1.0000000  0.0000000 )       ( -0.3535534 )


      isym = 15      90 deg rotation - cart. axis [-1,0,0]       

 cryst.   s(15) = (     1          0         -1      )    f =(  0.2500000 )
                  (     1          0          0      )       (  0.2500000 )
                  (     1         -1          0      )       (  0.2500000 )

 cart.    s(15) = (  1.0000000  0.0000000  0.0000000 )    f =( -0.3535534 )
                  (  0.0000000  0.0000000  1.0000000 )       ( -0.3535534 )
                  (  0.0000000 -1.0000000  0.0000000 )       ( -0.3535534 )


      isym = 16      90 deg rotation - cart. axis [1,0,0]        

 cryst.   s(16) = (     0          1          0      )    f =(  0.2500000 )
                  (     0          1         -1      )       (  0.2500000 )
                  (    -1          1          0      )       (  0.2500000 )

 cart.    s(16) = (  1.0000000  0.0000000  0.0000000 )    f =( -0.3535534 )
                  (  0.0000000  0.0000000 -1.0000000 )       ( -0.3535534 )
                  (  0.0000000  1.0000000  0.0000000 )       ( -0.3535534 )


      isym = 17     120 deg rotation - cart. axis [-1,-1,-1]     

 cryst.   s(17) = (     0          1          0      )
                  (     0          0          1      )
                  (     1          0          0      )

 cart.    s(17) = (  0.0000000  1.0000000  0.0000000 )
                  (  0.0000000  0.0000000  1.0000000 )
                  (  1.0000000  0.0000000  0.0000000 )


      isym = 18     120 deg rotation - cart. axis [-1,1,1]       

 cryst.   s(18) = (     0         -1          0      )
                  (     1         -1          0      )
                  (     0         -1          1      )

 cart.    s(18) = (  0.0000000 -1.0000000  0.0000000 )
                  (  0.0000000  0.0000000  1.0000000 )
                  ( -1.0000000  0.0000000  0.0000000 )


      isym = 19     120 deg rotation - cart. axis [1,1,-1]       

 cryst.   s(19) = (     1          0         -1      )
                  (     0          0         -1      )
                  (     0          1         -1      )

 cart.    s(19) = (  0.0000000  1.0000000  0.0000000 )
                  (  0.0000000  0.0000000 -1.0000000 )
                  ( -1.0000000  0.0000000  0.0000000 )


      isym = 20     120 deg rotation - cart. axis [1,-1,1]       

 cryst.   s(20) = (    -1          0          1      )
                  (    -1          1          0      )
                  (    -1          0          0      )

 cart.    s(20) = (  0.0000000 -1.0000000  0.0000000 )
                  (  0.0000000  0.0000000 -1.0000000 )
                  (  1.0000000  0.0000000  0.0000000 )


      isym = 21     120 deg rotation - cart. axis [1,1,1]        

 cryst.   s(21) = (     0          0          1      )
                  (     1          0          0      )
                  (     0          1          0      )

 cart.    s(21) = (  0.0000000  0.0000000  1.0000000 )
                  (  1.0000000  0.0000000  0.0000000 )
                  (  0.0000000  1.0000000  0.0000000 )


      isym = 22     120 deg rotation - cart. axis [-1,1,-1]      

 cryst.   s(22) = (     0          0         -1      )
                  (     0          1         -1      )
                  (     1          0         -1      )

 cart.    s(22) = (  0.0000000  0.0000000  1.0000000 )
                  ( -1.0000000  0.0000000  0.0000000 )
                  (  0.0000000 -1.0000000  0.0000000 )


      isym = 23     120 deg rotation - cart. axis [1,-1,-1]      

 cryst.   s(23) = (    -1          1          0      )
                  (    -1          0          0      )
                  (    -1          0          1      )

 cart.    s(23) = (  0.0000000  0.0000000 -1.0000000 )
                  ( -1.0000000  0.0000000  0.0000000 )
                  (  0.0000000  1.0000000  0.0000000 )


      isym = 24     120 deg rotation - cart. axis [-1,-1,1]      

 cryst.   s(24) = (     1         -1          0      )
                  (     0         -1          1      )
                  (     0         -1          0      )

 cart.    s(24) = (  0.0000000  0.0000000 -1.0000000 )
                  (  1.0000000  0.0000000  0.0000000 )
                  (  0.0000000 -1.0000000  0.0000000 )


      isym = 25     inversion                                    

 cryst.   s(25) = (    -1          0          0      )    f =(  0.2500000 )
                  (     0         -1          0      )       (  0.2500000 )
                  (     0          0         -1      )       (  0.2500000 )

 cart.    s(25) = ( -1.0000000  0.0000000  0.0000000 )    f =( -0.3535534 )
                  (  0.0000000 -1.0000000  0.0000000 )       ( -0.3535534 )
                  (  0.0000000  0.0000000 -1.0000000 )       ( -0.3535534 )


      isym = 26     inv. 180 deg rotation - cart. axis [0,0,1]   

 cryst.   s(26) = (     1          0          0      )    f =(  0.2500000 )
                  (     1          0         -1      )       (  0.2500000 )
                  (     1         -1          0      )       (  0.2500000 )

 cart.    s(26) = (  1.0000000  0.0000000  0.0000000 )    f =( -0.3535534 )
                  (  0.0000000  1.0000000  0.0000000 )       ( -0.3535534 )
                  (  0.0000000  0.0000000 -1.0000000 )       ( -0.3535534 )


      isym = 27     inv. 180 deg rotation - cart. axis [0,1,0]   

 cryst.   s(27) = (     0          1         -1      )    f =(  0.2500000 )
                  (     0          1          0      )       (  0.2500000 )
                  (    -1          1          0      )       (  0.2500000 )

 cart.    s(27) = (  1.0000000  0.0000000  0.0000000 )    f =( -0.3535534 )
                  (  0.0000000 -1.0000000  0.0000000 )       ( -0.3535534 )
                  (  0.0000000  0.0000000  1.0000000 )       ( -0.3535534 )


      isym = 28     inv. 180 deg rotation - cart. axis [1,0,0]   

 cryst.   s(28) = (     0         -1          1      )    f =(  0.2500000 )
                  (    -1          0          1      )       (  0.2500000 )
                  (     0          0          1      )       (  0.2500000 )

 cart.    s(28) = ( -1.0000000  0.0000000  0.0000000 )    f =( -0.3535534 )
                  (  0.0000000  1.0000000  0.0000000 )       ( -0.3535534 )
                  (  0.0000000  0.0000000  1.0000000 )       ( -0.3535534 )


      isym = 29     inv. 180 deg rotation - cart. axis [1,1,0]   

 cryst.   s(29) = (    -1          0          0      )
                  (    -1          1          0      )
                  (    -1          0          1      )

 cart.    s(29) = (  0.0000000 -1.0000000  0.0000000 )
                  ( -1.0000000  0.0000000  0.0000000 )
                  (  0.0000000  0.0000000  1.0000000 )


      isym = 30     inv. 180 deg rotation - cart. axis [1,-1,0]  

 cryst.   s(30) = (     1          0          0      )
                  (     0          0          1      )
                  (     0          1          0      )

 cart.    s(30) = (  0.0000000  1.0000000  0.0000000 )
                  (  1.0000000  0.0000000  0.0000000 )
                  (  0.0000000  0.0000000  1.0000000 )


      isym = 31     inv.  90 deg rotation - cart. axis [0,0,-1]  

 cryst.   s(31) = (     0         -1          1      )
                  (     1         -1          0      )
                  (     0         -1          0      )

 cart.    s(31) = (  0.0000000 -1.0000000  0.0000000 )
                  (  1.0000000  0.0000000  0.0000000 )
                  (  0.0000000  0.0000000 -1.0000000 )


      isym = 32     inv.  90 deg rotation - cart. axis [0,0,1]   

 cryst.   s(32) = (     0          1         -1      )
                  (     0          0         -1      )
                  (     1          0         -1      )

 cart.    s(32) = (  0.0000000  1.0000000  0.0000000 )
                  ( -1.0000000  0.0000000  0.0000000 )
                  (  0.0000000  0.0000000 -1.0000000 )


      isym = 33     inv. 180 deg rotation - cart. axis [1,0,1]   

 cryst.   s(33) = (     1         -1          0      )
                  (     0         -1          0      )
                  (     0         -1          1      )

 cart.    s(33) = (  0.0000000  0.0000000 -1.0000000 )
                  (  0.0000000  1.0000000  0.0000000 )
                  ( -1.0000000  0.0000000  0.0000000 )


      isym = 34     inv. 180 deg rotation - cart. axis [-1,0,1]  

 cryst.   s(34) = (     0          0          1      )
                  (     0          1          0      )
                  (     1          0          0      )

 cart.    s(34) = (  0.0000000  0.0000000  1.0000000 )
                  (  0.0000000  1.0000000  0.0000000 )
                  (  1.0000000  0.0000000  0.0000000 )


      isym = 35     inv.  90 deg rotation - cart. axis [0,1,0]   

 cryst.   s(35) = (    -1          1          0      )
                  (    -1          0          1      )
                  (    -1          0          0      )

 cart.    s(35) = (  0.0000000  0.0000000 -1.0000000 )
                  (  0.0000000 -1.0000000  0.0000000 )
                  (  1.0000000  0.0000000  0.0000000 )


      isym = 36     inv.  90 deg rotation - cart. axis [0,-1,0]  

 cryst.   s(36) = (     0          0         -1      )
                  (     1          0         -1      )
                  (     0          1         -1      )

 cart.    s(36) = (  0.0000000  0.0000000  1.0000000 )
                  (  0.0000000 -1.0000000  0.0000000 )
                  ( -1.0000000  0.0000000  0.0000000 )


      isym = 37     inv. 180 deg rotation - cart. axis [0,1,1]   

 cryst.   s(37) = (     1          0         -1      )
                  (     0          1         -1      )
                  (     0          0         -1      )

 cart.    s(37) = (  1.0000000  0.0000000  0.0000000 )
                  (  0.0000000  0.0000000 -1.0000000 )
                  (  0.0000000 -1.0000000  0.0000000 )


      isym = 38     inv. 180 deg rotation - cart. axis [0,1,-1]  

 cryst.   s(38) = (     0          1          0      )
                  (     1          0          0      )
                  (     0          0          1      )

 cart.    s(38) = (  1.0000000  0.0000000  0.0000000 )
                  (  0.0000000  0.0000000  1.0000000 )
                  (  0.0000000  1.0000000  0.0000000 )


      isym = 39     inv.  90 deg rotation - cart. axis [-1,0,0]  

 cryst.   s(39) = (    -1          0          1      )
                  (    -1          0          0      )
                  (    -1          1          0      )

 cart.    s(39) = ( -1.0000000  0.0000000  0.0000000 )
                  (  0.0000000  0.0000000 -1.0000000 )
                  (  0.0000000  1.0000000  0.0000000 )


      isym = 40     inv.  90 deg rotation - cart. axis [1,0,0]   

 cryst.   s(40) = (     0         -1          0      )
                  (     0         -1          1      )
                  (     1         -1          0      )

 cart.    s(40) = ( -1.0000000  0.0000000  0.0000000 )
                  (  0.0000000  0.0000000  1.0000000 )
                  (  0.0000000 -1.0000000  0.0000000 )


      isym = 41     inv. 120 deg rotation - cart. axis [-1,-1,-1]

 cryst.   s(41) = (     0         -1          0      )    f =(  0.2500000 )
                  (     0          0         -1      )       (  0.2500000 )
                  (    -1          0          0      )       (  0.2500000 )

 cart.    s(41) = (  0.0000000 -1.0000000  0.0000000 )    f =( -0.3535534 )
                  (  0.0000000  0.0000000 -1.0000000 )       ( -0.3535534 )
                  ( -1.0000000  0.0000000  0.0000000 )       ( -0.3535534 )


      isym = 42     inv. 120 deg rotation - cart. axis [-1,1,1]  

 cryst.   s(42) = (     0          1          0      )    f =(  0.2500000 )
                  (    -1          1          0      )       (  0.2500000 )
                  (     0          1         -1      )       (  0.2500000 )

 cart.    s(42) = (  0.0000000  1.0000000  0.0000000 )    f =( -0.3535534 )
                  (  0.0000000  0.0000000 -1.0000000 )       ( -0.3535534 )
                  (  1.0000000  0.0000000  0.0000000 )       ( -0.3535534 )


      isym = 43     inv. 120 deg rotation - cart. axis [1,1,-1]  

 cryst.   s(43) = (    -1          0          1      )    f =(  0.2500000 )
                  (     0          0          1      )       (  0.2500000 )
                  (     0         -1          1      )       (  0.2500000 )

 cart.    s(43) = (  0.0000000 -1.0000000  0.0000000 )    f =( -0.3535534 )
                  (  0.0000000  0.0000000  1.0000000 )       ( -0.3535534 )
                  (  1.0000000  0.0000000  0.0000000 )       ( -0.3535534 )


      isym = 44     inv. 120 deg rotation - cart. axis [1,-1,1]  

 cryst.   s(44) = (     1          0         -1      )    f =(  0.2500000 )
                  (     1         -1          0      )       (  0.2500000 )
                  (     1          0          0      )       (  0.2500000 )

 cart.    s(44) = (  0.0000000  1.0000000  0.0000000 )    f =( -0.3535534 )
                  (  0.0000000  0.0000000  1.0000000 )       ( -0.3535534 )
                  ( -1.0000000  0.0000000  0.0000000 )       ( -0.3535534 )


      isym = 45     inv. 120 deg rotation - cart. axis [1,1,1]   

 cryst.   s(45) = (     0          0         -1      )    f =(  0.2500000 )
                  (    -1          0          0      )       (  0.2500000 )
                  (     0         -1          0      )       (  0.2500000 )

 cart.    s(45) = (  0.0000000  0.0000000 -1.0000000 )    f =( -0.3535534 )
                  ( -1.0000000  0.0000000  0.0000000 )       ( -0.3535534 )
                  (  0.0000000 -1.0000000  0.0000000 )       ( -0.3535534 )


      isym = 46     inv. 120 deg rotation - cart. axis [-1,1,-1] 

 cryst.   s(46) = (     0          0          1      )    f =(  0.2500000 )
                  (     0         -1          1      )       (  0.2500000 )
                  (    -1          0          1      )       (  0.2500000 )

 cart.    s(46) = (  0.0000000  0.0000000 -1.0000000 )    f =( -0.3535534 )
                  (  1.0000000  0.0000000  0.0000000 )       ( -0.3535534 )
                  (  0.0000000  1.0000000  0.0000000 )       ( -0.3535534 )


      isym = 47     inv. 120 deg rotation - cart. axis [1,-1,-1] 

 cryst.   s(47) = (     1         -1          0      )    f =(  0.2500000 )
                  (     1          0          0      )       (  0.2500000 )
                  (     1          0         -1      )       (  0.2500000 )

 cart.    s(47) = (  0.0000000  0.0000000  1.0000000 )    f =( -0.3535534 )
                  (  1.0000000  0.0000000  0.0000000 )       ( -0.3535534 )
                  (  0.0000000 -1.0000000  0.0000000 )       ( -0.3535534 )


      isym = 48     inv. 120 deg rotation - cart. axis [-1,-1,1] 

 cryst.   s(48) = (    -1          1          0      )    f =(  0.2500000 )
                  (     0          1         -1      )       (  0.2500000 )
                  (     0          1          0      )       (  0.2500000 )

 cart.    s(48) = (  0.0000000  0.0000000  1.0000000 )    f =( -0.3535534 )
                  ( -1.0000000  0.0000000  0.0000000 )       ( -0.3535534 )
                  (  0.0000000  1.0000000  0.0000000 )       ( -0.3535534 )


   Cartesian axes

     site n.     atom                  positions (alat units)
         1           Si  tau(   1) = (  -1.0606602  -1.0606602  -1.0606602  )
         2           Si  tau(   2) = (  -0.0000000   0.0000000   0.0000000  )

   Crystallographic axes

     site n.     atom                  positions (cryst. coord.)
         1           Si  tau(   1) = (  0.7500000  0.7500000  0.7500000  )
         2           Si  tau(   2) = (  0.0000000  0.0000000 -0.0000000  )

     number of k points=    47  Marzari-Vanderbilt smearing, width (Ry)=  0.0147
                       cart. coord. in units 2pi/alat
        k(    1) = (   0.0000000   0.0000000   0.0000000), wk =   0.0020000
        k(    2) = (   0.0707107  -0.0707107  -0.0707107), wk =   0.0160000
        k(    3) = (   0.1414214  -0.1414214  -0.1414214), wk =   0.0160000
        k(    4) = (   0.2121320  -0.2121320  -0.2121320), wk =   0.0160000
        k(    5) = (   0.2828427  -0.2828427  -0.2828427), wk =   0.0160000
        k(    6) = (  -0.3535534   0.3535534   0.3535534), wk =   0.0080000
        k(    7) = (   0.0000000   0.0000000  -0.1414214), wk =   0.0120000
        k(    8) = (   0.0707107  -0.0707107  -0.2121320), wk =   0.0480000
        k(    9) = (   0.1414214  -0.1414214  -0.2828427), wk =   0.0480000
        k(   10) = (   0.2121320  -0.2121320  -0.3535534), wk =   0.0480000
        k(   11) = (  -0.4242641   0.4242641   0.2828427), wk =   0.0480000
        k(   12) = (  -0.3535534   0.3535534   0.2121320), wk =   0.0480000
        k(   13) = (  -0.2828427   0.2828427   0.1414214), wk =   0.0480000
        k(   14) = (  -0.2121320   0.2121320   0.0707107), wk =   0.0480000
        k(   15) = (  -0.1414214   0.1414214  -0.0000000), wk =   0.0240000
        k(   16) = (   0.0000000   0.0000000  -0.2828427), wk =   0.0120000
        k(   17) = (   0.0707107  -0.0707107  -0.3535534), wk =   0.0480000
        k(   18) = (   0.1414214  -0.1414214  -0.4242641), wk =   0.0480000
        k(   19) = (  -0.4949747   0.4949747   0.2121320), wk =   0.0480000
        k(   20) = (  -0.4242641   0.4242641   0.1414214), wk =   0.0480000
        k(   21) = (  -0.3535534   0.3535534   0.0707107), wk =   0.0480000
        k(   22) = (  -0.2828427   0.2828427  -0.0000000), wk =   0.0240000
        k(   23) = (   0.0000000   0.0000000  -0.4242641), wk =   0.0120000
        k(   24) = (   0.0707107  -0.0707107  -0.4949747), wk =   0.0480000
        k(   25) = (  -0.5656854   0.5656854   0.1414214), wk =   0.0480000
        k(   26) = (  -0.4949747   0.4949747   0.0707107), wk =   0.0480000
        k(   27) = (  -0.4242641   0.4242641   0.0000000), wk =   0.0240000
        k(   28) = (   0.0000000   0.0000000  -0.5656854), wk =   0.0120000
        k(   29) = (  -0.6363961   0.6363961   0.0707107), wk =   0.0480000
        k(   30) = (  -0.5656854   0.5656854   0.0000000), wk =   0.0240000
        k(   31) = (   0.0000000   0.0000000   0.7071068), wk =   0.0060000
        k(   32) = (  -0.0000000  -0.1414214  -0.2828427), wk =   0.0480000
        k(   33) = (   0.0707107  -0.2121320  -0.3535534), wk =   0.0960000
        k(   34) = (  -0.5656854   0.4242641   0.2828427), wk =   0.0960000
        k(   35) = (  -0.4949747   0.3535534   0.2121320), wk =   0.0480000
        k(   36) = (   0.0000000  -0.1414214  -0.4242641), wk =   0.0480000
        k(   37) = (  -0.6363961   0.4949747   0.2121320), wk =   0.0960000
        k(   38) = (  -0.5656854   0.4242641   0.1414214), wk =   0.0960000
        k(   39) = (  -0.4949747   0.3535534   0.0707107), wk =   0.0960000
        k(   40) = (  -0.4242641   0.2828427  -0.0000000), wk =   0.0480000
        k(   41) = (  -0.7071068   0.5656854   0.1414214), wk =   0.0480000
        k(   42) = (  -0.6363961   0.4949747   0.0707107), wk =   0.0960000
        k(   43) = (  -0.5656854   0.4242641   0.0000000), wk =   0.0480000
        k(   44) = (  -0.0000000  -0.1414214   0.7071068), wk =   0.0240000
        k(   45) = (  -0.7071068   0.4242641   0.1414214), wk =   0.0480000
        k(   46) = (  -0.6363961   0.3535534   0.0707107), wk =   0.0480000
        k(   47) = (  -0.0000000  -0.2828427   0.7071068), wk =   0.0240000

                       cryst. coord.
        k(    1) = (   0.0000000   0.0000000  -0.0000000), wk =   0.0020000
        k(    2) = (   0.0000000   0.0000000   0.1000000), wk =   0.0160000
        k(    3) = (   0.0000000   0.0000000   0.2000000), wk =   0.0160000
        k(    4) = (   0.0000000   0.0000000   0.3000000), wk =   0.0160000
        k(    5) = (   0.0000000   0.0000000   0.4000000), wk =   0.0160000
        k(    6) = (   0.0000000   0.0000000  -0.5000000), wk =   0.0080000
        k(    7) = (  -0.0000000   0.1000000   0.1000000), wk =   0.0120000
        k(    8) = (   0.0000000   0.1000000   0.2000000), wk =   0.0480000
        k(    9) = (   0.0000000   0.1000000   0.3000000), wk =   0.0480000
        k(   10) = (   0.0000000   0.1000000   0.4000000), wk =   0.0480000
        k(   11) = (   0.0000000   0.1000000  -0.5000000), wk =   0.0480000
        k(   12) = (   0.0000000   0.1000000  -0.4000000), wk =   0.0480000
        k(   13) = (   0.0000000   0.1000000  -0.3000000), wk =   0.0480000
        k(   14) = (   0.0000000   0.1000000  -0.2000000), wk =   0.0480000
        k(   15) = (   0.0000000   0.1000000  -0.1000000), wk =   0.0240000
        k(   16) = (  -0.0000000   0.2000000   0.2000000), wk =   0.0120000
        k(   17) = (   0.0000000   0.2000000   0.3000000), wk =   0.0480000
        k(   18) = (   0.0000000   0.2000000   0.4000000), wk =   0.0480000
        k(   19) = (   0.0000000   0.2000000  -0.5000000), wk =   0.0480000
        k(   20) = (   0.0000000   0.2000000  -0.4000000), wk =   0.0480000
        k(   21) = (   0.0000000   0.2000000  -0.3000000), wk =   0.0480000
        k(   22) = (   0.0000000   0.2000000  -0.2000000), wk =   0.0240000
        k(   23) = (  -0.0000000   0.3000000   0.3000000), wk =   0.0120000
        k(   24) = (   0.0000000   0.3000000   0.4000000), wk =   0.0480000
        k(   25) = (   0.0000000   0.3000000  -0.5000000), wk =   0.0480000
        k(   26) = (   0.0000000   0.3000000  -0.4000000), wk =   0.0480000
        k(   27) = (   0.0000000   0.3000000  -0.3000000), wk =   0.0240000
        k(   28) = (  -0.0000000   0.4000000   0.4000000), wk =   0.0120000
        k(   29) = (   0.0000000   0.4000000  -0.5000000), wk =   0.0480000
        k(   30) = (   0.0000000   0.4000000  -0.4000000), wk =   0.0240000
        k(   31) = (   0.0000000  -0.5000000  -0.5000000), wk =   0.0060000
        k(   32) = (   0.1000000   0.2000000   0.3000000), wk =   0.0480000
        k(   33) = (   0.1000000   0.2000000   0.4000000), wk =   0.0960000
        k(   34) = (   0.1000000   0.2000000  -0.5000000), wk =   0.0960000
        k(   35) = (   0.1000000   0.2000000  -0.4000000), wk =   0.0480000
        k(   36) = (   0.1000000   0.3000000   0.4000000), wk =   0.0480000
        k(   37) = (   0.1000000   0.3000000  -0.5000000), wk =   0.0960000
        k(   38) = (   0.1000000   0.3000000  -0.4000000), wk =   0.0960000
        k(   39) = (   0.1000000   0.3000000  -0.3000000), wk =   0.0960000
        k(   40) = (   0.1000000   0.3000000  -0.2000000), wk =   0.0480000
        k(   41) = (   0.1000000   0.4000000  -0.5000000), wk =   0.0480000
        k(   42) = (   0.1000000   0.4000000  -0.4000000), wk =   0.0960000
        k(   43) = (   0.1000000   0.4000000  -0.3000000), wk =   0.0480000
        k(   44) = (   0.1000000  -0.5000000  -0.4000000), wk =   0.0240000
        k(   45) = (   0.2000000   0.4000000  -0.4000000), wk =   0.0480000
        k(   46) = (   0.2000000   0.4000000  -0.3000000), wk =   0.0480000
        k(   47) = (   0.2000000  -0.5000000  -0.3000000), wk =   0.0240000

     Dense  grid:    16961 G-vectors     FFT dimensions: (  36,  36,  36)

     Smooth grid:     5985 G-vectors     FFT dimensions: (  32,  32,  32)

     Dynamical RAM for                 wfc:       0.09 MB

     Dynamical RAM for     wfc (w. buffer):       4.42 MB

     Dynamical RAM for           str. fact:       0.26 MB

     Dynamical RAM for           local pot:       0.00 MB

     Dynamical RAM for          nlocal pot:       0.41 MB

     Dynamical RAM for                qrad:       2.88 MB

     Dynamical RAM for          rho,v,vnew:       1.84 MB

     Dynamical RAM for               rhoin:       0.61 MB

     Dynamical RAM for            rho*nmix:       4.14 MB

     Dynamical RAM for           G-vectors:       1.02 MB

     Dynamical RAM for          h,s,v(r/c):       0.05 MB

     Dynamical RAM for          <psi|beta>:       0.00 MB

     Dynamical RAM for                 psi:       0.37 MB

     Dynamical RAM for                hpsi:       0.37 MB

     Dynamical RAM for                spsi:       0.37 MB

     Dynamical RAM for      wfcinit/wfcrot:       0.19 MB

     Dynamical RAM for           addusdens:      48.66 MB

     Dynamical RAM for          addusforce:      49.31 MB

     Dynamical RAM for         addusstress:      52.02 MB

     Estimated static dynamical RAM per process >      17.89 MB

     Estimated max dynamical RAM per process >      69.91 MB

     Initial potential from superposition of free atoms

     starting charge    7.99892, renormalised to    8.00000
     Starting wfcs are    8 randomized atomic wfcs

     total cpu time spent up to now is        2.6 secs

     Self-consistent Calculation

     iteration #  1     ecut=    30.00 Ry     beta= 0.40
     Davidson diagonalization with overlap
     ethr =  1.00E-02,  avg # of iterations =  3.7

     Threshold (ethr) on eigenvalues was too large:
     Diagonalizing with lowered threshold

     Davidson diagonalization with overlap
     ethr =  6.85E-04,  avg # of iterations =  1.3

     total cpu time spent up to now is        4.3 secs

     total energy              =     -22.67986209 Ry
     Harris-Foulkes estimate   =     -22.69201983 Ry
     estimated scf accuracy    <       0.05441295 Ry

     iteration #  2     ecut=    30.00 Ry     beta= 0.40
     Davidson diagonalization with overlap
     ethr =  6.80E-04,  avg # of iterations =  1.0

     total cpu time spent up to now is        5.0 secs

     total energy              =     -22.67658500 Ry
     Harris-Foulkes estimate   =     -22.68086458 Ry
     estimated scf accuracy    <       0.01463321 Ry

     iteration #  3     ecut=    30.00 Ry     beta= 0.40
     Davidson diagonalization with overlap
     ethr =  1.83E-04,  avg # of iterations =  1.1

     total cpu time spent up to now is        5.7 secs

     total energy              =     -22.67747681 Ry
     Harris-Foulkes estimate   =     -22.67754944 Ry
     estimated scf accuracy    <       0.00023562 Ry

     iteration #  4     ecut=    30.00 Ry     beta= 0.40
     Davidson diagonalization with overlap
     ethr =  2.95E-06,  avg # of iterations =  3.7

     total cpu time spent up to now is        6.6 secs

     total energy              =     -22.67754639 Ry
     Harris-Foulkes estimate   =     -22.67754678 Ry
     estimated scf accuracy    <       0.00000224 Ry

     iteration #  5     ecut=    30.00 Ry     beta= 0.40
     Davidson diagonalization with overlap
     ethr =  2.80E-08,  avg # of iterations =  2.1

     total cpu time spent up to now is        7.4 secs

     total energy              =     -22.67754693 Ry
     Harris-Foulkes estimate   =     -22.67754696 Ry
     estimated scf accuracy    <       0.00000031 Ry

     iteration #  6     ecut=    30.00 Ry     beta= 0.40
     Davidson diagonalization with overlap
     ethr =  3.91E-09,  avg # of iterations =  2.0

     total cpu time spent up to now is        8.2 secs

     total energy              =     -22.67754697 Ry
     Harris-Foulkes estimate   =     -22.67754699 Ry
     estimated scf accuracy    <       0.00000003 Ry

     iteration #  7     ecut=    30.00 Ry     beta= 0.40
     Davidson diagonalization with overlap
     ethr =  4.09E-10,  avg # of iterations =  2.0

     total cpu time spent up to now is        9.0 secs

     total energy              =     -22.67754698 Ry
     Harris-Foulkes estimate   =     -22.67754698 Ry
     estimated scf accuracy    <          2.6E-09 Ry

     iteration #  8     ecut=    30.00 Ry     beta= 0.40
     Davidson diagonalization with overlap
     ethr =  3.23E-11,  avg # of iterations =  1.9

     total cpu time spent up to now is        9.7 secs

     End of self-consistent calculation

          k = 0.0000 0.0000 0.0000 (   749 PWs)   bands (ev):

    -5.8583   6.0814   6.0814   6.0814   8.6005   8.6005   8.6005   9.3105

     occupation numbers 
     1.0000   0.4978   0.4978   0.4978   0.0000   0.0000   0.0000   0.0000

          k = 0.0707-0.0707-0.0707 (   743 PWs)   bands (ev):

    -5.7278   4.9248   5.8818   5.8818   8.5860   8.8934   8.8934  10.2549

     occupation numbers 
     1.0000   1.0000   1.0595   1.0595   0.0000   0.0000   0.0000   0.0000

          k = 0.1414-0.1414-0.1414 (   769 PWs)   bands (ev):

    -5.3424   3.0594   5.5003   5.5003   8.2138   9.3994   9.3994  12.0092

     occupation numbers 
     1.0000   1.0000   1.0012   1.0012   0.0000   0.0000   0.0000   0.0000

          k = 0.2121-0.2121-0.2121 (   763 PWs)   bands (ev):

    -4.7282   1.2745   5.1661   5.1661   7.8458   9.5646   9.5646  13.5622

     occupation numbers 
     1.0000   1.0000   1.0000   1.0000   0.0000   0.0000   0.0000   0.0000

          k = 0.2828-0.2828-0.2828 (   763 PWs)   bands (ev):

    -3.9814  -0.2007   4.9546   4.9546   7.6043   9.4430   9.4430  13.7176

     occupation numbers 
     1.0000   1.0000   1.0000   1.0000   0.0000   0.0000   0.0000   0.0000

          k =-0.3536 0.3536 0.3536 (   754 PWs)   bands (ev):

    -3.5284  -0.8999   4.8834   4.8834   7.5217   9.3659   9.3659  13.5990

     occupation numbers 
     1.0000   1.0000   1.0000   1.0000   0.0000   0.0000   0.0000   0.0000

          k = 0.0000 0.0000-0.1414 (   753 PWs)   bands (ev):

    -5.6840   5.1322   5.5008   5.5008   8.2070   9.3932   9.3932  10.1499

     occupation numbers 
     1.0000   1.0000   1.0012   1.0012   0.0000   0.0000   0.0000   0.0000

          k = 0.0707-0.0707-0.2121 (   755 PWs)   bands (ev):

    -5.3824   3.6182   5.0651   5.2329   8.2606   9.4261  10.0452  10.9756

     occupation numbers 
     1.0000   1.0000   1.0000   1.0000   0.0000   0.0000   0.0000   0.0000

          k = 0.1414-0.1414-0.2828 (   764 PWs)   bands (ev):

    -4.8401   1.8583   4.7469   4.7965   8.3823   9.4084  10.3213  11.3149

     occupation numbers 
     1.0000   1.0000   1.0000   1.0000   0.0000   0.0000   0.0000   0.0000

          k = 0.2121-0.2121-0.3536 (   760 PWs)   bands (ev):

    -4.1169   0.2862   4.3840   4.6008   8.2331   9.3621  10.1373  12.3786

     occupation numbers 
     1.0000   1.0000   1.0000   1.0000   0.0000   0.0000   0.0000   0.0000

          k =-0.4243 0.4243 0.2828 (   757 PWs)   bands (ev):

    -3.4748  -0.7521   4.0933   4.6350   8.1456   9.3266   9.8677  13.7435

     occupation numbers 
     1.0000   1.0000   1.0000   1.0000   0.0000   0.0000   0.0000   0.0000

          k =-0.3536 0.3536 0.2121 (   759 PWs)   bands (ev):

    -3.6427  -0.5027   3.9644   4.8358   8.2079   9.4578   9.7122  13.9722

     occupation numbers 
     1.0000   1.0000   1.0000   1.0000   0.0000   0.0000   0.0000   0.0000

          k =-0.2828 0.2828 0.1414 (   763 PWs)   bands (ev):

    -4.3722   0.7798   4.0235   5.1713   8.4146   9.6447   9.7128  12.9805

     occupation numbers 
     1.0000   1.0000   1.0000   1.0000   0.0000   0.0000   0.0000   0.0000

          k =-0.2121 0.2121 0.0707 (   762 PWs)   bands (ev):

    -5.0470   2.4283   4.2982   5.5781   8.7293   9.4055   9.7317  11.9385

     occupation numbers 
     1.0000   1.0000   1.0000   1.0061   0.0000   0.0000   0.0000   0.0000

          k =-0.1414 0.1414-0.0000 (   763 PWs)   bands (ev):

    -5.5118   4.0394   4.9098   5.9057   8.9581   8.9970   9.1336  11.1772

     occupation numbers 
     1.0000   1.0000   1.0000   1.0311   0.0000   0.0000   0.0000   0.0000

          k = 0.0000 0.0000-0.2828 (   753 PWs)   bands (ev):

    -5.1649   3.4483   4.5880   4.5880   7.4659   9.8723  10.9278  10.9278

     occupation numbers 
     1.0000   1.0000   1.0000   1.0000   0.0000   0.0000   0.0000   0.0000

          k = 0.0707-0.0707-0.3536 (   756 PWs)   bands (ev):

    -4.7004   2.2046   4.0741   4.2401   7.5630   9.4396  11.1740  11.5149

     occupation numbers 
     1.0000   1.0000   1.0000   1.0000   0.0000   0.0000   0.0000   0.0000

          k = 0.1414-0.1414-0.4243 (   752 PWs)   bands (ev):

    -4.0263   0.7687   3.4405   4.0813   7.7718  10.0792  10.9406  11.4630

     occupation numbers 
     1.0000   1.0000   1.0000   1.0000   0.0000   0.0000   0.0000   0.0000

          k =-0.4950 0.4950 0.2121 (   757 PWs)   bands (ev):

    -3.2948  -0.4164   2.9290   4.1262   7.8337  10.7003  11.1304  11.6428

     occupation numbers 
     1.0000   1.0000   1.0000   1.0000   0.0000   0.0000   0.0000   0.0000

          k =-0.4243 0.4243 0.1414 (   753 PWs)   bands (ev):

    -3.1410  -0.6256   2.6292   4.3655   8.0519  10.6002  10.8267  13.5539

     occupation numbers 
     1.0000   1.0000   1.0000   1.0000   0.0000   0.0000   0.0000   0.0000

          k =-0.3536 0.3536 0.0707 (   759 PWs)   bands (ev):

    -3.7958   0.3629   2.6070   4.7640   8.4557  10.5578  10.6069  12.6829

     occupation numbers 
     1.0000   1.0000   1.0000   1.0000   0.0000   0.0000   0.0000   0.0000

          k =-0.2828 0.2828-0.0000 (   766 PWs)   bands (ev):

    -4.5129   1.6005   3.0597   5.2360   8.8999  10.0241  10.3142  11.7084

     occupation numbers 
     1.0000   1.0000   1.0000   1.0000   0.0000   0.0000   0.0000   0.0000

          k = 0.0000 0.0000-0.4243 (   753 PWs)   bands (ev):

    -4.3136   1.6634   3.8472   3.8472   6.8553   8.3960  12.6736  12.6736

     occupation numbers 
     1.0000   1.0000   1.0000   1.0000   0.0000   0.0000   0.0000   0.0000

          k = 0.0707-0.0707-0.4950 (   758 PWs)   bands (ev):

    -3.7022   0.6614   3.2119   3.6428   7.0431   8.2308  12.9594  13.0894

     occupation numbers 
     1.0000   1.0000   1.0000   1.0000   0.0000   0.0000   0.0000   0.0000

          k =-0.5657 0.5657 0.1414 (   756 PWs)   bands (ev):

    -2.9526  -0.3424   2.3745   3.6499   7.2165   9.3760  12.7681  12.8357

     occupation numbers 
     1.0000   1.0000   1.0000   1.0000   0.0000   0.0000   0.0000   0.0000

          k =-0.4950 0.4950 0.0707 (   749 PWs)   bands (ev):

    -2.5317  -0.8192   1.8172   3.8661   7.4504  11.1776  12.4356  12.6066

     occupation numbers 
     1.0000   1.0000   1.0000   1.0000   0.0000   0.0000   0.0000   0.0000

          k =-0.4243 0.4243 0.0000 (   752 PWs)   bands (ev):

    -3.0701  -0.2303   1.7903   4.2633   7.8998  11.7714  12.0393  12.8154

     occupation numbers 
     1.0000   1.0000   1.0000   1.0000   0.0000   0.0000   0.0000   0.0000

          k = 0.0000 0.0000-0.5657 (   753 PWs)   bands (ev):

    -3.1539  -0.0923   3.3829   3.3829   6.5678   7.2917  14.5148  14.5148

     occupation numbers 
     1.0000   1.0000   1.0000   1.0000   0.0001   0.0000   0.0000   0.0000

          k =-0.6364 0.6364 0.0707 (   753 PWs)   bands (ev):

    -2.4265  -0.9296   2.7864   3.3345   6.8008   7.5645  14.7570  14.8412

     occupation numbers 
     1.0000   1.0000   1.0000   1.0000   0.0000   0.0000   0.0000   0.0000

          k =-0.5657 0.5657 0.0000 (   746 PWs)   bands (ev):

    -1.9489  -1.3499   1.9933   3.5020   7.0139   9.1486  14.1019  14.6921

     occupation numbers 
     1.0000   1.0000   1.0000   1.0000   0.0000   0.0000   0.0000   0.0000

          k = 0.0000 0.0000 0.7071 (   740 PWs)   bands (ev):

    -1.7260  -1.7260   3.2256   3.2256   6.6930   6.6930  16.0760  16.0760

     occupation numbers 
     1.0000   1.0000   1.0000   1.0000   0.0000   0.0000   0.0000   0.0000

          k =-0.0000-0.1414-0.2828 (   766 PWs)   bands (ev):

    -5.0000   2.6993   3.9854   5.1065   8.3624   9.7429  10.5964  10.6931

     occupation numbers 
     1.0000   1.0000   1.0000   1.0000   0.0000   0.0000   0.0000   0.0000

          k = 0.0707-0.2121-0.3536 (   759 PWs)   bands (ev):

    -4.3898   1.2919   3.3949   4.7299   8.7083   9.6276  10.7081  11.1432

     occupation numbers 
     1.0000   1.0000   1.0000   1.0000   0.0000   0.0000   0.0000   0.0000

          k =-0.5657 0.4243 0.2828 (   759 PWs)   bands (ev):

    -3.6433  -0.0710   3.1639   4.3788   8.7573   9.2908  11.0775  12.0486

     occupation numbers 
     1.0000   1.0000   1.0000   1.0000   0.0000   0.0000   0.0000   0.0000

          k =-0.4950 0.3536 0.2121 (   752 PWs)   bands (ev):

    -3.1829  -0.7501   3.1043   4.2407   8.7863   9.1018  11.0363  13.8320

     occupation numbers 
     1.0000   1.0000   1.0000   1.0000   0.0000   0.0000   0.0000   0.0000

          k = 0.0000-0.1414-0.4243 (   758 PWs)   bands (ev):

    -4.1640   1.3081   3.2580   3.9879   7.7816   9.0458  11.2179  12.5605

     occupation numbers 
     1.0000   1.0000   1.0000   1.0000   0.0000   0.0000   0.0000   0.0000

          k =-0.6364 0.4950 0.2121 (   755 PWs)   bands (ev):

    -3.4448   0.2088   2.6352   3.6563   8.1583   9.7508  10.8340  12.9489

     occupation numbers 
     1.0000   1.0000   1.0000   1.0000   0.0000   0.0000   0.0000   0.0000

          k =-0.5657 0.4243 0.1414 (   751 PWs)   bands (ev):

    -2.7938  -0.6550   2.2249   3.6004   8.3386  10.3709  11.5085  12.8763

     occupation numbers 
     1.0000   1.0000   1.0000   1.0000   0.0000   0.0000   0.0000   0.0000

          k =-0.4950 0.3536 0.0707 (   755 PWs)   bands (ev):

    -2.9954  -0.3952   2.0728   3.8414   8.6834  10.1163  11.9435  12.7377

     occupation numbers 
     1.0000   1.0000   1.0000   1.0000   0.0000   0.0000   0.0000   0.0000

          k =-0.4243 0.2828-0.0000 (   756 PWs)   bands (ev):

    -3.7308   0.5535   2.3732   4.2839   9.1856   9.6701  10.7063  12.2722

     occupation numbers 
     1.0000   1.0000   1.0000   1.0000   0.0000   0.0000   0.0000   0.0000

          k =-0.7071 0.5657 0.1414 (   754 PWs)   bands (ev):

    -3.0353  -0.1769   2.8475   3.1772   7.4823   8.0626  12.7590  14.5013

     occupation numbers 
     1.0000   1.0000   1.0000   1.0000   0.0000   0.0000   0.0000   0.0000

          k =-0.6364 0.4950 0.0707 (   747 PWs)   bands (ev):

    -2.2973  -0.9489   2.1376   3.0851   7.8298   9.2784  12.3524  14.1262

     occupation numbers 
     1.0000   1.0000   1.0000   1.0000   0.0000   0.0000   0.0000   0.0000

          k =-0.5657 0.4243 0.0000 (   750 PWs)   bands (ev):

    -2.3011  -0.9236   1.7180   3.3557   8.1594  11.1052  11.9609  12.2743

     occupation numbers 
     1.0000   1.0000   1.0000   1.0000   0.0000   0.0000   0.0000   0.0000

          k =-0.0000-0.1414 0.7071 (   754 PWs)   bands (ev):

    -1.6722  -1.6722   2.8058   2.8058   7.5552   7.5552  14.4840  14.4840

     occupation numbers 
     1.0000   1.0000   1.0000   1.0000   0.0000   0.0000   0.0000   0.0000

          k =-0.7071 0.4243 0.1414 (   750 PWs)   bands (ev):

    -2.7136  -0.4736   2.0782   3.0716   9.3983   9.7621  10.4386  13.7768

     occupation numbers 
     1.0000   1.0000   1.0000   1.0000   0.0000   0.0000   0.0000   0.0000

          k =-0.6364 0.3536 0.0707 (   746 PWs)   bands (ev):

    -2.2023  -0.9817   1.9192   2.8186   9.6667   9.9916  11.3950  11.8406

     occupation numbers 
     1.0000   1.0000   1.0000   1.0000   0.0000   0.0000   0.0000   0.0000

          k =-0.0000-0.2828 0.7071 (   752 PWs)   bands (ev):

    -1.5770  -1.5770   2.2837   2.2837   9.4286   9.4286  11.9249  11.9249

     occupation numbers 
     1.0000   1.0000   1.0000   1.0000   0.0000   0.0000   0.0000   0.0000

     the Fermi energy is     6.1086 ev

!    total energy              =     -22.67754698 Ry
     Harris-Foulkes estimate   =     -22.67754698 Ry
     estimated scf accuracy    <          9.7E-11 Ry

     The total energy is the sum of the following terms:

     one-electron contribution =       5.12238568 Ry
     hartree contribution      =       1.08592140 Ry
     xc contribution           =     -12.12930247 Ry
     ewald contribution        =     -16.75665896 Ry
     smearing contrib. (-TS)   =       0.00010738 Ry

     convergence has been achieved in   8 iterations

     Forces acting on atoms (cartesian axes, Ry/au):

     atom    1 type  1   force =     0.00000000    0.00000000   -0.00000000
     atom    2 type  1   force =     0.00000000    0.00000000    0.00000000
     The non-local contrib.  to forces
     atom    1 type  1   force =     0.00000000    0.00000000    0.00000000
     atom    2 type  1   force =     0.00000000    0.00000000    0.00000000
     The ionic contribution  to forces
     atom    1 type  1   force =    -0.00000000   -0.00000000   -0.00000000
     atom    2 type  1   force =     0.00000000    0.00000000    0.00000000
     The local contribution  to forces
     atom    1 type  1   force =    -0.00000000   -0.00000000   -0.00000000
     atom    2 type  1   force =     0.00000000   -0.00000000    0.00000000
     The core correction contribution to forces
     atom    1 type  1   force =     0.00000000    0.00000000    0.00000000
     atom    2 type  1   force =    -0.00000000   -0.00000000   -0.00000000
     The Hubbard contrib.    to forces
     atom    1 type  1   force =     0.00000000    0.00000000    0.00000000
     atom    2 type  1   force =     0.00000000    0.00000000    0.00000000
     The SCF correction term to forces
     atom    1 type  1   force =     0.00000000    0.00000000    0.00000000
     atom    2 type  1   force =     0.00000000    0.00000000    0.00000000

     Total force =     0.000000     Total SCF correction =     0.000000


     Computing stress (Cartesian axis) and pressure

          total   stress  (Ry/bohr**3)                   (kbar)     P=   -5.60
  -0.00003807   0.00000000   0.00000000         -5.60      0.00      0.00
   0.00000000  -0.00003807   0.00000000          0.00     -5.60      0.00
   0.00000000   0.00000000  -0.00003807          0.00      0.00     -5.60

     kinetic stress (kbar)   2182.89      0.00      0.00
                                0.00   2182.89      0.00
                                0.00      0.00   2182.89

     local   stress (kbar)     33.23      0.00      0.00
                                0.00     33.23      0.00
                                0.00      0.00     33.23

     nonloc. stress (kbar)   1614.16     -0.00      0.00
                               -0.00   1614.16     -0.00
                                0.00     -0.00   1614.16

     hartree stress (kbar)    195.65      0.00      0.00
                                0.00    195.65      0.00
                                0.00      0.00    195.65

     exc-cor stress (kbar)   2890.02      0.00      0.00
                                0.00   2890.02     -0.00
                                0.00     -0.00   2890.02

     corecor stress (kbar)  -3902.48     -0.00     -0.00
                               -0.00  -3902.48     -0.00
                               -0.00     -0.00  -3902.48

     ewald   stress (kbar)  -3019.08      0.00      0.00
                                0.00  -3019.08      0.00
                                0.00      0.00  -3019.08

     hubbard stress (kbar)      0.00      0.00      0.00
                                0.00      0.00      0.00
                                0.00      0.00      0.00

     london  stress (kbar)      0.00      0.00      0.00
                                0.00      0.00      0.00
                                0.00      0.00      0.00

     DFT-D3  stress (kbar)      0.00      0.00      0.00
                                0.00      0.00      0.00
                                0.00      0.00      0.00

     XDM     stress (kbar)      0.00      0.00      0.00
                                0.00      0.00      0.00
                                0.00      0.00      0.00

     dft-nl  stress (kbar)      0.00      0.00      0.00
                                0.00      0.00      0.00
                                0.00      0.00      0.00

     TS-vdW  stress (kbar)      0.00      0.00      0.00
                                0.00      0.00      0.00
                                0.00      0.00      0.00



     BFGS Geometry Optimization

     number of scf cycles    =   1
     number of bfgs steps    =   0

     enthalpy new            =     -22.6775469769 Ry

     new trust radius        =       0.0031400001 bohr
     new conv_thr            =       0.0000000004 Ry

     new unit-cell volume =    271.38086 a.u.^3 (    40.21449 Ang^3 )
     density =      2.31942 g/cm^3

CELL_PARAMETERS (angstrom)
  -2.719260860  -2.719260860  -0.000000000
  -2.719260860  -0.000000000  -2.719260860
  -0.000000000  -2.719260860  -2.719260860

ATOMIC_POSITIONS (crystal)
Si       0.750000000   0.750000000   0.750000000
Si       0.000000000  -0.000000000  -0.000000000



     Writing output data file Si.save/
     NEW-OLD atomic charge density approx. for the potential
     extrapolated charge    7.97712, renormalised to    8.00000

     total cpu time spent up to now is       13.6 secs

     Self-consistent Calculation

     iteration #  1     ecut=    30.00 Ry     beta= 0.40
     Davidson diagonalization with overlap
     ethr =  1.00E-06,  avg # of iterations =  2.0

     Threshold (ethr) on eigenvalues was too large:
     Diagonalizing with lowered threshold

     Davidson diagonalization with overlap
     ethr =  4.11E-08,  avg # of iterations =  1.0

     total cpu time spent up to now is       15.3 secs

     total energy              =     -22.67756373 Ry
     Harris-Foulkes estimate   =     -22.66460333 Ry
     estimated scf accuracy    <       0.00000339 Ry

     iteration #  2     ecut=    30.00 Ry     beta= 0.40
     Davidson diagonalization with overlap
     ethr =  4.23E-08,  avg # of iterations =  2.1

     total cpu time spent up to now is       18.1 secs

     total energy              =     -22.67756971 Ry
     Harris-Foulkes estimate   =     -22.67756994 Ry
     estimated scf accuracy    <       0.00000103 Ry

     iteration #  3     ecut=    30.00 Ry     beta= 0.40
     Davidson diagonalization with overlap
     ethr =  1.29E-08,  avg # of iterations =  1.0

     total cpu time spent up to now is       18.8 secs

     total energy              =     -22.67756953 Ry
     Harris-Foulkes estimate   =     -22.67756974 Ry
     estimated scf accuracy    <       0.00000045 Ry

     iteration #  4     ecut=    30.00 Ry     beta= 0.40
     Davidson diagonalization with overlap
     ethr =  5.68E-09,  avg # of iterations =  1.9

     total cpu time spent up to now is       19.6 secs

     total energy              =     -22.67756958 Ry
     Harris-Foulkes estimate   =     -22.67756960 Ry
     estimated scf accuracy    <       0.00000005 Ry

     iteration #  5     ecut=    30.00 Ry     beta= 0.40
     Davidson diagonalization with overlap
     ethr =  5.64E-10,  avg # of iterations =  1.0

     total cpu time spent up to now is       20.4 secs

     total energy              =     -22.67756958 Ry
     Harris-Foulkes estimate   =     -22.67756959 Ry
     estimated scf accuracy    <          8.5E-09 Ry

     iteration #  6     ecut=    30.00 Ry     beta= 0.40
     Davidson diagonalization with overlap
     ethr =  1.07E-10,  avg # of iterations =  1.7

     total cpu time spent up to now is       21.3 secs

     End of self-consistent calculation

          k =-0.0000 0.0000 0.0000 (   749 PWs)   bands (ev):

    -5.8482   6.1111   6.1111   6.1111   8.6314   8.6314   8.6314   9.3726

     occupation numbers 
     1.0000   0.4971   0.4971   0.4971   0.0000   0.0000   0.0000   0.0000

          k = 0.0708-0.0708-0.0708 (   743 PWs)   bands (ev):

    -5.7174   4.9542   5.9109   5.9109   8.6230   8.9251   8.9251  10.3105

     occupation numbers 
     1.0000   1.0000   1.0599   1.0599   0.0000   0.0000   0.0000   0.0000

          k = 0.1416-0.1416-0.1416 (   769 PWs)   bands (ev):

    -5.3310   3.0857   5.5285   5.5285   8.2531   9.4320   9.4320  12.0631

     occupation numbers 
     1.0000   1.0000   1.0012   1.0012   0.0000   0.0000   0.0000   0.0000

          k = 0.2123-0.2123-0.2123 (   763 PWs)   bands (ev):

    -4.7152   1.2970   5.1937   5.1937   7.8855   9.5957   9.5957  13.6096

     occupation numbers 
     1.0000   1.0000   1.0000   1.0000   0.0000   0.0000   0.0000   0.0000

          k = 0.2831-0.2831-0.2831 (   763 PWs)   bands (ev):

    -3.9660  -0.1820   4.9819   4.9819   7.6440   9.4722   9.4722  13.7523

     occupation numbers 
     1.0000   1.0000   1.0000   1.0000   0.0000   0.0000   0.0000   0.0000

          k =-0.3539 0.3539 0.3539 (   754 PWs)   bands (ev):

    -3.5110  -0.8837   4.9106   4.9106   7.5615   9.3944   9.3944  13.6325

     occupation numbers 
     1.0000   1.0000   1.0000   1.0000   0.0000   0.0000   0.0000   0.0000

          k = 0.0000 0.0000-0.1416 (   753 PWs)   bands (ev):

    -5.6735   5.1644   5.5286   5.5286   8.2369   9.4266   9.4266  10.2079

     occupation numbers 
     1.0000   1.0000   1.0012   1.0012   0.0000   0.0000   0.0000   0.0000

          k = 0.0708-0.0708-0.2123 (   755 PWs)   bands (ev):

    -5.3711   3.6468   5.0918   5.2615   8.2912   9.4660  10.0800  11.0153

     occupation numbers 
     1.0000   1.0000   1.0000   1.0000   0.0000   0.0000   0.0000   0.0000

          k = 0.1416-0.1416-0.2831 (   764 PWs)   bands (ev):

    -4.8274   1.8829   4.7729   4.8243   8.4163   9.4452  10.3551  11.3478

     occupation numbers 
     1.0000   1.0000   1.0000   1.0000   0.0000   0.0000   0.0000   0.0000

          k = 0.2123-0.2123-0.3539 (   760 PWs)   bands (ev):

    -4.1021   0.3067   4.4110   4.6267   8.2691   9.3946  10.1689  12.4147

     occupation numbers 
     1.0000   1.0000   1.0000   1.0000   0.0000   0.0000   0.0000   0.0000

          k =-0.4247 0.4247 0.2831 (   757 PWs)   bands (ev):

    -3.4575  -0.7349   4.1195   4.6613   8.1827   9.3571   9.8978  13.7820

     occupation numbers 
     1.0000   1.0000   1.0000   1.0000   0.0000   0.0000   0.0000   0.0000

          k =-0.3539 0.3539 0.2123 (   759 PWs)   bands (ev):

    -3.6261  -0.4846   3.9899   4.8628   8.2462   9.4878   9.7420  14.0111

     occupation numbers 
     1.0000   1.0000   1.0000   1.0000   0.0000   0.0000   0.0000   0.0000

          k =-0.2831 0.2831 0.1416 (   763 PWs)   bands (ev):

    -4.3582   0.8017   4.0486   5.1991   8.4538   9.6756   9.7438  13.0224

     occupation numbers 
     1.0000   1.0000   1.0000   1.0000   0.0000   0.0000   0.0000   0.0000

          k =-0.2123 0.2123 0.0708 (   762 PWs)   bands (ev):

    -5.0349   2.4542   4.3233   5.6070   8.7688   9.4377   9.7652  11.9816

     occupation numbers 
     1.0000   1.0000   1.0000   1.0060   0.0000   0.0000   0.0000   0.0000

          k =-0.1416 0.1416-0.0000 (   763 PWs)   bands (ev):

    -5.5009   4.0688   4.9357   5.9353   8.9897   9.0371   9.1668  11.2280

     occupation numbers 
     1.0000   1.0000   1.0000   1.0310   0.0000   0.0000   0.0000   0.0000

          k = 0.0000 0.0000-0.2831 (   753 PWs)   bands (ev):

    -5.1531   3.4799   4.6133   4.6133   7.4940   9.9067  10.9649  10.9649

     occupation numbers 
     1.0000   1.0000   1.0000   1.0000   0.0000   0.0000   0.0000   0.0000

          k = 0.0708-0.0708-0.3539 (   756 PWs)   bands (ev):

    -4.6874   2.2328   4.0989   4.2647   7.5913   9.4706  11.2131  11.5525

     occupation numbers 
     1.0000   1.0000   1.0000   1.0000   0.0000   0.0000   0.0000   0.0000

          k = 0.1416-0.1416-0.4247 (   752 PWs)   bands (ev):

    -4.0114   0.7926   3.4642   4.1056   7.8000  10.1111  10.9812  11.4983

     occupation numbers 
     1.0000   1.0000   1.0000   1.0000   0.0000   0.0000   0.0000   0.0000

          k =-0.4954 0.4954 0.2123 (   757 PWs)   bands (ev):

    -3.2775  -0.3964   2.9515   4.1508   7.8621  10.7383  11.1638  11.6805

     occupation numbers 
     1.0000   1.0000   1.0000   1.0000   0.0000   0.0000   0.0000   0.0000

          k =-0.4247 0.4247 0.1416 (   753 PWs)   bands (ev):

    -3.1230  -0.6065   2.6508   4.3908   8.0817  10.6383  10.8595  13.5942

     occupation numbers 
     1.0000   1.0000   1.0000   1.0000   0.0000   0.0000   0.0000   0.0000

          k =-0.3539 0.3539 0.0708 (   759 PWs)   bands (ev):

    -3.7802   0.3856   2.6277   4.7906   8.4878  10.5914  10.6438  12.7265

     occupation numbers 
     1.0000   1.0000   1.0000   1.0000   0.0000   0.0000   0.0000   0.0000

          k =-0.2831 0.2831-0.0000 (   766 PWs)   bands (ev):

    -4.4994   1.6267   3.0806   5.2639   8.9356  10.0579  10.3497  11.7502

     occupation numbers 
     1.0000   1.0000   1.0000   1.0000   0.0000   0.0000   0.0000   0.0000

          k = 0.0000 0.0000-0.4247 (   753 PWs)   bands (ev):

    -4.2997   1.6919   3.8708   3.8708   6.8816   8.4228  12.7146  12.7146

     occupation numbers 
     1.0000   1.0000   1.0000   1.0000   0.0000   0.0000   0.0000   0.0000

          k = 0.0708-0.0708-0.4954 (   758 PWs)   bands (ev):

    -3.6867   0.6876   3.2335   3.6659   7.0694   8.2578  13.0031  13.1296

     occupation numbers 
     1.0000   1.0000   1.0000   1.0000   0.0000   0.0000   0.0000   0.0000

          k =-0.5662 0.5662 0.1416 (   756 PWs)   bands (ev):

    -2.9348  -0.3190   2.3934   3.6732   7.2424   9.4065  12.8129  12.8736

     occupation numbers 
     1.0000   1.0000   1.0000   1.0000   0.0000   0.0000   0.0000   0.0000

          k =-0.4954 0.4954 0.0708 (   749 PWs)   bands (ev):

    -2.5121  -0.7978   1.8344   3.8900   7.4771  11.2106  12.4730  12.6520

     occupation numbers 
     1.0000   1.0000   1.0000   1.0000   0.0000   0.0000   0.0000   0.0000

          k =-0.4247 0.4247 0.0000 (   752 PWs)   bands (ev):

    -3.0523  -0.2072   1.8072   4.2883   7.9283  11.8092  12.0746  12.8629

     occupation numbers 
     1.0000   1.0000   1.0000   1.0000   0.0000   0.0000   0.0000   0.0000

          k = 0.0000 0.0000-0.5662 (   753 PWs)   bands (ev):

    -3.1371  -0.0677   3.4054   3.4054   6.5927   7.3162  14.5599  14.5599

     occupation numbers 
     1.0000   1.0000   1.0000   1.0000   0.0001   0.0000   0.0000   0.0000

          k =-0.6370 0.6370 0.0708 (   753 PWs)   bands (ev):

    -2.4077  -0.9070   2.8066   3.3570   6.8255   7.5910  14.8012  14.8891

     occupation numbers 
     1.0000   1.0000   1.0000   1.0000   0.0000   0.0000   0.0000   0.0000

          k =-0.5662 0.5662 0.0000 (   746 PWs)   bands (ev):

    -1.9280  -1.3288   2.0104   3.5250   7.0391   9.1789  14.1458  14.7443

     occupation numbers 
     1.0000   1.0000   1.0000   1.0000   0.0000   0.0000   0.0000   0.0000

          k = 0.0000 0.0000 0.7078 (   740 PWs)   bands (ev):

    -1.7056  -1.7056   3.2478   3.2478   6.7172   6.7172  16.1300  16.1300

     occupation numbers 
     1.0000   1.0000   1.0000   1.0000   0.0000   0.0000   0.0000   0.0000

          k = 0.0000-0.1416-0.2831 (   766 PWs)   bands (ev):

    -4.9877   2.7277   4.0089   5.1342   8.3929   9.7845  10.6264  10.7295

     occupation numbers 
     1.0000   1.0000   1.0000   1.0000   0.0000   0.0000   0.0000   0.0000

          k = 0.0708-0.2123-0.3539 (   759 PWs)   bands (ev):

    -4.3759   1.3166   3.4177   4.7564   8.7403   9.6641  10.7414  11.1786

     occupation numbers 
     1.0000   1.0000   1.0000   1.0000   0.0000   0.0000   0.0000   0.0000

          k =-0.5662 0.4247 0.2831 (   759 PWs)   bands (ev):

    -3.6271  -0.0504   3.1872   4.4040   8.7914   9.3219  11.1139  12.0847

     occupation numbers 
     1.0000   1.0000   1.0000   1.0000   0.0000   0.0000   0.0000   0.0000

          k =-0.4954 0.3539 0.2123 (   752 PWs)   bands (ev):

    -3.1648  -0.7320   3.1278   4.2653   8.8229   9.1295  11.0722  13.8741

     occupation numbers 
     1.0000   1.0000   1.0000   1.0000   0.0000   0.0000   0.0000   0.0000

          k = 0.0000-0.1416-0.4247 (   758 PWs)   bands (ev):

    -4.1496   1.3352   3.2796   4.0118   7.8103   9.0747  11.2567  12.6010

     occupation numbers 
     1.0000   1.0000   1.0000   1.0000   0.0000   0.0000   0.0000   0.0000

          k =-0.6370 0.4954 0.2123 (   755 PWs)   bands (ev):

    -3.4283   0.2329   2.6555   3.6790   8.1872   9.7813  10.8723  12.9899

     occupation numbers 
     1.0000   1.0000   1.0000   1.0000   0.0000   0.0000   0.0000   0.0000

          k =-0.5662 0.4247 0.1416 (   751 PWs)   bands (ev):

    -2.7750  -0.6340   2.2444   3.6229   8.3677  10.4047  11.5454  12.9179

     occupation numbers 
     1.0000   1.0000   1.0000   1.0000   0.0000   0.0000   0.0000   0.0000

          k =-0.4954 0.3539 0.0708 (   755 PWs)   bands (ev):

    -2.9773  -0.3733   2.0915   3.8647   8.7138  10.1501  11.9814  12.7757

     occupation numbers 
     1.0000   1.0000   1.0000   1.0000   0.0000   0.0000   0.0000   0.0000

          k =-0.4247 0.2831 0.0000 (   756 PWs)   bands (ev):

    -3.7151   0.5783   2.3922   4.3087   9.2184   9.7031  10.7408  12.3113

     occupation numbers 
     1.0000   1.0000   1.0000   1.0000   0.0000   0.0000   0.0000   0.0000

          k =-0.7078 0.5662 0.1416 (   754 PWs)   bands (ev):

    -3.0180  -0.1523   2.8680   3.1984   7.5097   8.0895  12.8001  14.5465

     occupation numbers 
     1.0000   1.0000   1.0000   1.0000   0.0000   0.0000   0.0000   0.0000

          k =-0.6370 0.4954 0.0708 (   747 PWs)   bands (ev):

    -2.2777  -0.9263   2.1553   3.1061   7.8574   9.3088  12.3924  14.1704

     occupation numbers 
     1.0000   1.0000   1.0000   1.0000   0.0000   0.0000   0.0000   0.0000

          k =-0.5662 0.4247 0.0000 (   750 PWs)   bands (ev):

    -2.2809  -0.9014   1.7343   3.3775   8.1879  11.1371  12.0019  12.3133

     occupation numbers 
     1.0000   1.0000   1.0000   1.0000   0.0000   0.0000   0.0000   0.0000

          k =-0.0000-0.1416 0.7078 (   754 PWs)   bands (ev):

    -1.6513  -1.6513   2.8260   2.8260   7.5820   7.5820  14.5286  14.5286

     occupation numbers 
     1.0000   1.0000   1.0000   1.0000   0.0000   0.0000   0.0000   0.0000

          k =-0.7078 0.4247 0.1416 (   750 PWs)   bands (ev):

    -2.6950  -0.4499   2.0960   3.0920   9.4300   9.7906  10.4773  13.8183

     occupation numbers 
     1.0000   1.0000   1.0000   1.0000   0.0000   0.0000   0.0000   0.0000

          k =-0.6370 0.3539 0.0708 (   746 PWs)   bands (ev):

    -2.1820  -0.9594   1.9364   2.8381   9.6958  10.0265  11.4303  11.8809

     occupation numbers 
     1.0000   1.0000   1.0000   1.0000   0.0000   0.0000   0.0000   0.0000

          k =-0.0000-0.2831 0.7078 (   752 PWs)   bands (ev):

    -1.5554  -1.5554   2.3017   2.3017   9.4592   9.4592  11.9638  11.9638

     occupation numbers 
     1.0000   1.0000   1.0000   1.0000   0.0000   0.0000   0.0000   0.0000

     the Fermi energy is     6.1382 ev

!    total energy              =     -22.67756958 Ry
     Harris-Foulkes estimate   =     -22.67756958 Ry
     estimated scf accuracy    <          4.2E-12 Ry

     The total energy is the sum of the following terms:

     one-electron contribution =       5.14438902 Ry
     hartree contribution      =       1.08344221 Ry
     xc contribution           =     -12.13288702 Ry
     ewald contribution        =     -16.77262109 Ry
     smearing contrib. (-TS)   =       0.00010729 Ry

     convergence has been achieved in   6 iterations

     Forces acting on atoms (cartesian axes, Ry/au):

     atom    1 type  1   force =     0.00000000    0.00000000   -0.00000000
     atom    2 type  1   force =     0.00000000    0.00000000    0.00000000
     The non-local contrib.  to forces
     atom    1 type  1   force =     0.00000000   -0.00000000    0.00000000
     atom    2 type  1   force =    -0.00000000    0.00000000   -0.00000000
     The ionic contribution  to forces
     atom    1 type  1   force =     0.00000000    0.00000000    0.00000000
     atom    2 type  1   force =    -0.00000000   -0.00000000   -0.00000000
     The local contribution  to forces
     atom    1 type  1   force =    -0.00000000   -0.00000000   -0.00000000
     atom    2 type  1   force =    -0.00000000   -0.00000000    0.00000000
     The core correction contribution to forces
     atom    1 type  1   force =    -0.00000000   -0.00000000   -0.00000000
     atom    2 type  1   force =     0.00000000    0.00000000    0.00000000
     The Hubbard contrib.    to forces
     atom    1 type  1   force =     0.00000000    0.00000000    0.00000000
     atom    2 type  1   force =     0.00000000    0.00000000    0.00000000
     The SCF correction term to forces
     atom    1 type  1   force =    -0.00000000   -0.00000000   -0.00000000
     atom    2 type  1   force =    -0.00000000    0.00000000    0.00000000

     Total force =     0.000000     Total SCF correction =     0.000000


     Computing stress (Cartesian axis) and pressure

          total   stress  (Ry/bohr**3)                   (kbar)     P=   -2.96
  -0.00002013   0.00000000   0.00000000         -2.96      0.00      0.00
   0.00000000  -0.00002013   0.00000000          0.00     -2.96      0.00
   0.00000000   0.00000000  -0.00002013          0.00      0.00     -2.96

     kinetic stress (kbar)   2191.75      0.00      0.00
                                0.00   2191.75     -0.00
                                0.00      0.00   2191.75

     local   stress (kbar)     36.37      0.00      0.00
                                0.00     36.37      0.00
                                0.00      0.00     36.37

     nonloc. stress (kbar)   1619.78      0.00      0.00
                                0.00   1619.78      0.00
                                0.00      0.00   1619.78

     hartree stress (kbar)    195.76      0.00      0.00
                                0.00    195.76      0.00
                                0.00      0.00    195.76

     exc-cor stress (kbar)   2897.85      0.00      0.00
                                0.00   2897.85      0.00
                                0.00      0.00   2897.85

     corecor stress (kbar)  -3913.88     -0.00     -0.00
                               -0.00  -3913.88     -0.00
                               -0.00     -0.00  -3913.88

     ewald   stress (kbar)  -3030.60      0.00      0.00
                                0.00  -3030.60      0.00
                                0.00      0.00  -3030.60

     hubbard stress (kbar)      0.00      0.00      0.00
                                0.00      0.00      0.00
                                0.00      0.00      0.00

     london  stress (kbar)      0.00      0.00      0.00
                                0.00      0.00      0.00
                                0.00      0.00      0.00

     DFT-D3  stress (kbar)      0.00      0.00      0.00
                                0.00      0.00      0.00
                                0.00      0.00      0.00

     XDM     stress (kbar)      0.00      0.00      0.00
                                0.00      0.00      0.00
                                0.00      0.00      0.00

     dft-nl  stress (kbar)      0.00      0.00      0.00
                                0.00      0.00      0.00
                                0.00      0.00      0.00

     TS-vdW  stress (kbar)      0.00      0.00      0.00
                                0.00      0.00      0.00
                                0.00      0.00      0.00



     number of scf cycles    =   2
     number of bfgs steps    =   1

     enthalpy old            =     -22.6775469769 Ry
     enthalpy new            =     -22.6775695841 Ry

     CASE: enthalpy_new < enthalpy_old

     new trust radius        =       0.0035086276 bohr
     new conv_thr            =            4.0E-12 Ry

     new unit-cell volume =    270.51479 a.u.^3 (    40.08616 Ang^3 )
     density =      2.32684 g/cm^3

CELL_PARAMETERS (angstrom)
  -2.716365061  -2.716365061  -0.000000000
  -2.716365061  -0.000000000  -2.716365061
  -0.000000000  -2.716365061  -2.716365061

ATOMIC_POSITIONS (crystal)
Si       0.750000000   0.750000000   0.750000000
Si       0.000000000  -0.000000000  -0.000000000



     Writing output data file Si.save/
     NEW-OLD atomic charge density approx. for the potential
     extrapolated charge    7.97439, renormalised to    8.00000

     total cpu time spent up to now is       24.8 secs

     Self-consistent Calculation

     iteration #  1     ecut=    30.00 Ry     beta= 0.40
     Davidson diagonalization with overlap
     ethr =  1.00E-06,  avg # of iterations =  2.0

     Threshold (ethr) on eigenvalues was too large:
     Diagonalizing with lowered threshold

     Davidson diagonalization with overlap
     ethr =  5.13E-08,  avg # of iterations =  1.0

     total cpu time spent up to now is       26.4 secs

     total energy              =     -22.67757093 Ry
     Harris-Foulkes estimate   =     -22.66303271 Ry
     estimated scf accuracy    <       0.00000422 Ry

     iteration #  2     ecut=    30.00 Ry     beta= 0.40
     Davidson diagonalization with overlap
     ethr =  5.28E-08,  avg # of iterations =  2.1

     total cpu time spent up to now is       27.3 secs

     total energy              =     -22.67757841 Ry
     Harris-Foulkes estimate   =     -22.67757870 Ry
     estimated scf accuracy    <       0.00000129 Ry

     iteration #  3     ecut=    30.00 Ry     beta= 0.40
     Davidson diagonalization with overlap
     ethr =  1.62E-08,  avg # of iterations =  1.0

     total cpu time spent up to now is       28.1 secs

     total energy              =     -22.67757818 Ry
     Harris-Foulkes estimate   =     -22.67757845 Ry
     estimated scf accuracy    <       0.00000057 Ry

     iteration #  4     ecut=    30.00 Ry     beta= 0.40
     Davidson diagonalization with overlap
     ethr =  7.12E-09,  avg # of iterations =  1.9

     total cpu time spent up to now is       28.9 secs

     total energy              =     -22.67757825 Ry
     Harris-Foulkes estimate   =     -22.67757827 Ry
     estimated scf accuracy    <       0.00000006 Ry

     iteration #  5     ecut=    30.00 Ry     beta= 0.40
     Davidson diagonalization with overlap
     ethr =  7.08E-10,  avg # of iterations =  1.0

     total cpu time spent up to now is       29.7 secs

     total energy              =     -22.67757825 Ry
     Harris-Foulkes estimate   =     -22.67757825 Ry
     estimated scf accuracy    <       0.00000001 Ry

     iteration #  6     ecut=    30.00 Ry     beta= 0.40
     Davidson diagonalization with overlap
     ethr =  1.35E-10,  avg # of iterations =  1.7

     total cpu time spent up to now is       30.6 secs

     total energy              =     -22.67757825 Ry
     Harris-Foulkes estimate   =     -22.67757825 Ry
     estimated scf accuracy    <          7.5E-12 Ry

     iteration #  7     ecut=    30.00 Ry     beta= 0.40
     Davidson diagonalization with overlap
     ethr =  1.00E-13,  avg # of iterations =  3.7

     total cpu time spent up to now is       31.6 secs

     total energy              =     -22.67757825 Ry
     Harris-Foulkes estimate   =     -22.67757825 Ry
     estimated scf accuracy    <          1.2E-11 Ry

     iteration #  8     ecut=    30.00 Ry     beta= 0.40
     Davidson diagonalization with overlap
     ethr =  1.00E-13,  avg # of iterations =  1.0

     total cpu time spent up to now is       32.9 secs

     total energy              =     -22.67757825 Ry
     Harris-Foulkes estimate   =     -22.67757825 Ry
     estimated scf accuracy    <          6.3E-12 Ry

     iteration #  9     ecut=    30.00 Ry     beta= 0.40
     Davidson diagonalization with overlap
     ethr =  1.00E-13,  avg # of iterations =  1.0

     total cpu time spent up to now is       34.8 secs

     End of self-consistent calculation

          k = 0.0000 0.0000 0.0000 (   749 PWs)   bands (ev):

    -5.8369   6.1445   6.1445   6.1445   8.6661   8.6661   8.6661   9.4422

     occupation numbers 
     1.0000   0.4964   0.4964   0.4964   0.0000   0.0000   0.0000   0.0000

          k = 0.0709-0.0709-0.0709 (   743 PWs)   bands (ev):

    -5.7057   4.9872   5.9436   5.9436   8.6643   8.9608   8.9608  10.3731

     occupation numbers 
     1.0000   1.0000   1.0603   1.0603   0.0000   0.0000   0.0000   0.0000

          k = 0.1417-0.1417-0.1417 (   769 PWs)   bands (ev):

    -5.3182   3.1152   5.5602   5.5602   8.2972   9.4685   9.4685  12.1236

     occupation numbers 
     1.0000   1.0000   1.0012   1.0012   0.0000   0.0000   0.0000   0.0000

          k = 0.2126-0.2126-0.2126 (   763 PWs)   bands (ev):

    -4.7006   1.3222   5.2247   5.2247   7.9300   9.6305   9.6305  13.6627

     occupation numbers 
     1.0000   1.0000   1.0000   1.0000   0.0000   0.0000   0.0000   0.0000

          k = 0.2834-0.2834-0.2834 (   763 PWs)   bands (ev):

    -3.9487  -0.1611   5.0125   5.0125   7.6887   9.5049   9.5049  13.7912

     occupation numbers 
     1.0000   1.0000   1.0000   1.0000   0.0000   0.0000   0.0000   0.0000

          k =-0.3543 0.3543 0.3543 (   754 PWs)   bands (ev):

    -3.4916  -0.8654   4.9411   4.9411   7.6061   9.4264   9.4264  13.6701

     occupation numbers 
     1.0000   1.0000   1.0000   1.0000   0.0000   0.0000   0.0000   0.0000

          k = 0.0000 0.0000-0.1417 (   753 PWs)   bands (ev):

    -5.6616   5.2006   5.5597   5.5597   8.2705   9.4640   9.4640  10.2729

     occupation numbers 
     1.0000   1.0000   1.0011   1.0011   0.0000   0.0000   0.0000   0.0000

          k = 0.0709-0.0709-0.2126 (   755 PWs)   bands (ev):

    -5.3584   3.6789   5.1216   5.2935   8.3255   9.5107  10.1190  11.0597

     occupation numbers 
     1.0000   1.0000   1.0000   1.0000   0.0000   0.0000   0.0000   0.0000

          k = 0.1417-0.1417-0.2834 (   764 PWs)   bands (ev):

    -4.8131   1.9104   4.8021   4.8556   8.4544   9.4864  10.3930  11.3845

     occupation numbers 
     1.0000   1.0000   1.0000   1.0000   0.0000   0.0000   0.0000   0.0000

          k = 0.2126-0.2126-0.3543 (   760 PWs)   bands (ev):

    -4.0854   0.3298   4.4412   4.6558   8.3093   9.4310  10.2042  12.4552

     occupation numbers 
     1.0000   1.0000   1.0000   1.0000   0.0000   0.0000   0.0000   0.0000

          k =-0.4251 0.4251 0.2834 (   757 PWs)   bands (ev):

    -3.4381  -0.7156   4.1489   4.6907   8.2243   9.3915   9.9315  13.8251

     occupation numbers 
[...]
     estimated scf accuracy    <          1.7E-09 Ry

     iteration #  8     ecut=    30.00 Ry     beta= 0.40
     Davidson diagonalization with overlap
     ethr =  2.09E-11,  avg # of iterations =  2.1

     total cpu time spent up to now is       52.2 secs

     total energy              =     -22.67757413 Ry
     Harris-Foulkes estimate   =     -22.67757413 Ry
     estimated scf accuracy    <          1.0E-10 Ry

     iteration #  9     ecut=    30.00 Ry     beta= 0.40
     Davidson diagonalization with overlap
     ethr =  1.29E-12,  avg # of iterations =  1.6

     total cpu time spent up to now is       53.0 secs

     total energy              =     -22.67757413 Ry
     Harris-Foulkes estimate   =     -22.67757413 Ry
     estimated scf accuracy    <          9.7E-12 Ry

     iteration # 10     ecut=    30.00 Ry     beta= 0.40
     Davidson diagonalization with overlap
     ethr =  1.21E-13,  avg # of iterations =  1.6

     total cpu time spent up to now is       53.8 secs

     End of self-consistent calculation

          k = 0.0000 0.0000 0.0000 (   749 PWs)   bands (ev):

    -5.8369   6.1445   6.1445   6.1445   8.6661   8.6661   8.6661   9.4422

     occupation numbers 
     1.0000   0.4964   0.4964   0.4964   0.0000   0.0000   0.0000   0.0000

          k = 0.0709-0.0709-0.0709 (   743 PWs)   bands (ev):

    -5.7057   4.9872   5.9436   5.9436   8.6643   8.9608   8.9608  10.3731

     occupation numbers 
     1.0000   1.0000   1.0603   1.0603   0.0000   0.0000   0.0000   0.0000

          k = 0.1417-0.1417-0.1417 (   751 PWs)   bands (ev):

    -5.3182   3.1152   5.5602   5.5602   8.2972   9.4686   9.4686  12.1236

     occupation numbers 
     1.0000   1.0000   1.0012   1.0012   0.0000   0.0000   0.0000   0.0000

          k = 0.2126-0.2126-0.2126 (   757 PWs)   bands (ev):

    -4.7006   1.3223   5.2247   5.2247   7.9301   9.6305   9.6305  13.6627

     occupation numbers 
     1.0000   1.0000   1.0000   1.0000   0.0000   0.0000   0.0000   0.0000

          k = 0.2834-0.2834-0.2834 (   763 PWs)   bands (ev):

    -3.9487  -0.1611   5.0125   5.0125   7.6887   9.5049   9.5049  13.7912

     occupation numbers 
     1.0000   1.0000   1.0000   1.0000   0.0000   0.0000   0.0000   0.0000

          k =-0.3543 0.3543 0.3543 (   754 PWs)   bands (ev):

    -3.4916  -0.8654   4.9411   4.9411   7.6061   9.4264   9.4264  13.6701

     occupation numbers 
     1.0000   1.0000   1.0000   1.0000   0.0000   0.0000   0.0000   0.0000

          k = 0.0000 0.0000-0.1417 (   745 PWs)   bands (ev):

    -5.6616   5.2007   5.5598   5.5598   8.2705   9.4640   9.4640  10.2729

     occupation numbers 
     1.0000   1.0000   1.0011   1.0011   0.0000   0.0000   0.0000   0.0000

          k = 0.0709-0.0709-0.2126 (   752 PWs)   bands (ev):

    -5.3584   3.6789   5.1216   5.2935   8.3256   9.5107  10.1190  11.0597

     occupation numbers 
     1.0000   1.0000   1.0000   1.0000   0.0000   0.0000   0.0000   0.0000

          k = 0.1417-0.1417-0.2834 (   756 PWs)   bands (ev):

    -4.8131   1.9104   4.8022   4.8556   8.4544   9.4864  10.3930  11.3846

     occupation numbers 
     1.0000   1.0000   1.0000   1.0000   0.0000   0.0000   0.0000   0.0000

          k = 0.2126-0.2126-0.3543 (   760 PWs)   bands (ev):

    -4.0854   0.3298   4.4412   4.6558   8.3093   9.4310  10.2042  12.4552

     occupation numbers 
     1.0000   1.0000   1.0000   1.0000   0.0000   0.0000   0.0000   0.0000

          k =-0.4251 0.4251 0.2834 (   757 PWs)   bands (ev):

    -3.4381  -0.7156   4.1489   4.6907   8.2243   9.3915   9.9315  13.8251

     occupation numbers 
     1.0000   1.0000   1.0000   1.0000   0.0000   0.0000   0.0000   0.0000

          k =-0.3543 0.3543 0.2126 (   755 PWs)   bands (ev):

    -3.6076  -0.4643   4.0186   4.8930   8.2891   9.5216   9.7754  14.0548

     occupation numbers 
     1.0000   1.0000   1.0000   1.0000   0.0000   0.0000   0.0000   0.0000

          k =-0.2834 0.2834 0.1417 (   754 PWs)   bands (ev):

    -4.3424   0.8262   4.0769   5.2304   8.4978   9.7102   9.7788  13.0695

     occupation numbers 
     1.0000   1.0000   1.0000   1.0000   0.0000   0.0000   0.0000   0.0000

          k =-0.2126 0.2126 0.0709 (   757 PWs)   bands (ev):

    -5.0212   2.4834   4.3516   5.6394   8.8131   9.4738   9.8029  12.0299

     occupation numbers 
     1.0000   1.0000   1.0000   1.0059   0.0000   0.0000   0.0000   0.0000

          k =-0.1417 0.1417-0.0000 (   763 PWs)   bands (ev):

    -5.4886   4.1019   4.9647   5.9686   9.0252   9.0818   9.2040  11.2850

     occupation numbers 
     1.0000   1.0000   1.0000   1.0309   0.0000   0.0000   0.0000   0.0000

          k = 0.0000 0.0000-0.2834 (   745 PWs)   bands (ev):

    -5.1399   3.5154   4.6418   4.6418   7.5255   9.9452  11.0066  11.0066

     occupation numbers 
     1.0000   1.0000   1.0000   1.0000   0.0000   0.0000   0.0000   0.0000

          k = 0.0709-0.0709-0.3543 (   746 PWs)   bands (ev):

    -4.6729   2.2644   4.1267   4.2923   7.6231   9.5052  11.2570  11.5947

     occupation numbers 
     1.0000   1.0000   1.0000   1.0000   0.0000   0.0000   0.0000   0.0000

          k = 0.1417-0.1417-0.4251 (   752 PWs)   bands (ev):

    -3.9948   0.8194   3.4908   4.1329   7.8316  10.1468  11.0269  11.5380

     occupation numbers 
     1.0000   1.0000   1.0000   1.0000   0.0000   0.0000   0.0000   0.0000

          k =-0.4960 0.4960 0.2126 (   747 PWs)   bands (ev):

    -3.2580  -0.3739   2.9769   4.1784   7.8940  10.7810  11.2015  11.7229

     occupation numbers 
     1.0000   1.0000   1.0000   1.0000   0.0000   0.0000   0.0000   0.0000

          k =-0.4251 0.4251 0.1417 (   747 PWs)   bands (ev):

    -3.1027  -0.5850   2.6750   4.4193   8.1150  10.6810  10.8963  13.6395

     occupation numbers 
     1.0000   1.0000   1.0000   1.0000   0.0000   0.0000   0.0000   0.0000

          k =-0.3543 0.3543 0.0709 (   751 PWs)   bands (ev):

    -3.7626   0.4109   2.6509   4.8204   8.5239  10.6292  10.6852  12.7755

     occupation numbers 
     1.0000   1.0000   1.0000   1.0000   0.0000   0.0000   0.0000   0.0000

          k =-0.2834 0.2834-0.0000 (   746 PWs)   bands (ev):

    -4.4841   1.6560   3.1041   5.2953   8.9756  10.0960  10.3897  11.7971

     occupation numbers 
     1.0000   1.0000   1.0000   1.0000   0.0000   0.0000   0.0000   0.0000

          k = 0.0000 0.0000-0.4251 (   745 PWs)   bands (ev):

    -4.2841   1.7240   3.8972   3.8972   6.9110   8.4528  12.7606  12.7606

     occupation numbers 
     1.0000   1.0000   1.0000   1.0000   0.0000   0.0000   0.0000   0.0000

          k = 0.0709-0.0709-0.4960 (   752 PWs)   bands (ev):

    -3.6693   0.7170   3.2577   3.6920   7.0989   8.2881  13.0522  13.1747

     occupation numbers 
     1.0000   1.0000   1.0000   1.0000   0.0000   0.0000   0.0000   0.0000

          k =-0.5668 0.5668 0.1417 (   756 PWs)   bands (ev):

    -2.9149  -0.2928   2.4147   3.6993   7.2714   9.4407  12.8631  12.9161

     occupation numbers 
     1.0000   1.0000   1.0000   1.0000   0.0000   0.0000   0.0000   0.0000

          k =-0.4960 0.4960 0.0709 (   741 PWs)   bands (ev):

    -2.4900  -0.7738   1.8537   3.9168   7.5070  11.2475  12.5149  12.7029

     occupation numbers 
     1.0000   1.0000   1.0000   1.0000   0.0000   0.0000   0.0000   0.0000

          k =-0.4251 0.4251 0.0000 (   752 PWs)   bands (ev):

    -3.0323  -0.1813   1.8263   4.3164   7.9603  11.8515  12.1142  12.9162

     occupation numbers 
     1.0000   1.0000   1.0000   1.0000   0.0000   0.0000   0.0000   0.0000

          k = 0.0000 0.0000-0.5668 (   753 PWs)   bands (ev):

    -3.1182  -0.0402   3.4307   3.4307   6.6206   7.3438  14.6105  14.6105

     occupation numbers 
     1.0000   1.0000   1.0000   1.0000   0.0001   0.0000   0.0000   0.0000

          k =-0.6377 0.6377 0.0709 (   753 PWs)   bands (ev):

    -2.3866  -0.8817   2.8292   3.3822   6.8532   7.6208  14.8508  14.9427

     occupation numbers 
     1.0000   1.0000   1.0000   1.0000   0.0000   0.0000   0.0000   0.0000

          k =-0.5668 0.5668 0.0000 (   746 PWs)   bands (ev):

    -1.9045  -1.3050   2.0296   3.5507   7.0674   9.2129  14.1951  14.8028

     occupation numbers 
     1.0000   1.0000   1.0000   1.0000   0.0000   0.0000   0.0000   0.0000

          k = 0.0000 0.0000 0.7085 (   740 PWs)   bands (ev):

    -1.6826  -1.6826   3.2727   3.2727   6.7444   6.7444  16.1906  16.1906

     occupation numbers 
     1.0000   1.0000   1.0000   1.0000   0.0000   0.0000   0.0000   0.0000

          k = 0.0000-0.1417-0.2834 (   752 PWs)   bands (ev):

    -4.9740   2.7595   4.0352   5.1655   8.4271   9.8311  10.6602  10.7705

     occupation numbers 
     1.0000   1.0000   1.0000   1.0000   0.0000   0.0000   0.0000   0.0000

          k = 0.0709-0.2126-0.3543 (   758 PWs)   bands (ev):

    -4.3603   1.3443   3.4435   4.7861   8.7762   9.7050  10.7788  11.2183

     occupation numbers 
     1.0000   1.0000   1.0000   1.0000   0.0000   0.0000   0.0000   0.0000

          k =-0.5668 0.4251 0.2834 (   752 PWs)   bands (ev):

    -3.6089  -0.0273   3.2133   4.4323   8.8295   9.3568  11.1548  12.1251

     occupation numbers 
     1.0000   1.0000   1.0000   1.0000   0.0000   0.0000   0.0000   0.0000

          k =-0.4960 0.3543 0.2126 (   752 PWs)   bands (ev):

    -3.1444  -0.7117   3.1542   4.2930   8.8640   9.1606  11.1123  13.8607

     occupation numbers 
     1.0000   1.0000   1.0000   1.0000   0.0000   0.0000   0.0000   0.0000

          k = 0.0000-0.1417-0.4251 (   750 PWs)   bands (ev):

    -4.1335   1.3657   3.3039   4.0387   7.8426   9.1071  11.3003  12.6464

     occupation numbers 
     1.0000   1.0000   1.0000   1.0000   0.0000   0.0000   0.0000   0.0000

          k =-0.6377 0.4960 0.2126 (   750 PWs)   bands (ev):

    -3.4099   0.2601   2.6783   3.7044   8.2196   9.8154  10.9153  13.0359

     occupation numbers 
     1.0000   1.0000   1.0000   1.0000   0.0000   0.0000   0.0000   0.0000

          k =-0.5668 0.4251 0.1417 (   745 PWs)   bands (ev):

    -2.7538  -0.6104   2.2664   3.6481   8.4005  10.4427  11.5867  12.9645

     occupation numbers 
     1.0000   1.0000   1.0000   1.0000   0.0000   0.0000   0.0000   0.0000

          k =-0.4960 0.3543 0.0709 (   749 PWs)   bands (ev):

    -2.9569  -0.3487   2.1125   3.8909   8.7479  10.1880  12.0239  12.8184

     occupation numbers 
     1.0000   1.0000   1.0000   1.0000   0.0000   0.0000   0.0000   0.0000

          k =-0.4251 0.2834 0.0000 (   756 PWs)   bands (ev):

    -3.6974   0.6061   2.4135   4.3366   9.2552   9.7401  10.7795  12.3552

     occupation numbers 
     1.0000   1.0000   1.0000   1.0000   0.0000   0.0000   0.0000   0.0000

          k =-0.7085 0.5668 0.1417 (   754 PWs)   bands (ev):

    -2.9986  -0.1248   2.8910   3.2222   7.5405   8.1197  12.8463  14.5971

     occupation numbers 
     1.0000   1.0000   1.0000   1.0000   0.0000   0.0000   0.0000   0.0000

          k =-0.6377 0.4960 0.0709 (   743 PWs)   bands (ev):

    -2.2556  -0.9009   2.1752   3.1296   7.8884   9.3429  12.4372  14.2199

     occupation numbers 
     1.0000   1.0000   1.0000   1.0000   0.0000   0.0000   0.0000   0.0000

          k =-0.5668 0.4251 0.0000 (   740 PWs)   bands (ev):

    -2.2583  -0.8764   1.7525   3.4020   8.2200  11.1730  12.0480  12.3571

     occupation numbers 
     1.0000   1.0000   1.0000   1.0000   0.0000   0.0000   0.0000   0.0000

          k =-0.0000-0.1417 0.7085 (   750 PWs)   bands (ev):

    -1.6279  -1.6279   2.8487   2.8487   7.6120   7.6120  14.5787  14.5787

     occupation numbers 
     1.0000   1.0000   1.0000   1.0000   0.0000   0.0000   0.0000   0.0000

          k =-0.7085 0.4251 0.1417 (   750 PWs)   bands (ev):

    -2.6741  -0.4233   2.1160   3.1150   9.4656   9.8226  10.5206  13.8648

     occupation numbers 
     1.0000   1.0000   1.0000   1.0000   0.0000   0.0000   0.0000   0.0000

          k =-0.6377 0.3543 0.0709 (   740 PWs)   bands (ev):

    -2.1591  -0.9343   1.9556   2.8601   9.7284  10.0656  11.4698  11.9261

     occupation numbers 
     1.0000   1.0000   1.0000   1.0000   0.0000   0.0000   0.0000   0.0000

          k =-0.0000-0.2834 0.7085 (   746 PWs)   bands (ev):

    -1.5311  -1.5311   2.3218   2.3218   9.4937   9.4937  12.0074  12.0074

     occupation numbers 
     1.0000   1.0000   1.0000   1.0000   0.0000   0.0000   0.0000   0.0000

     the Fermi energy is     6.1713 ev

!    total energy              =     -22.67757413 Ry
     Harris-Foulkes estimate   =     -22.67757413 Ry
     estimated scf accuracy    <          1.4E-12 Ry

     The total energy is the sum of the following terms:

     one-electron contribution =       5.16905786 Ry
     hartree contribution      =       1.08066705 Ry
     xc contribution           =     -12.13690458 Ry
     ewald contribution        =     -16.79050166 Ry
     smearing contrib. (-TS)   =       0.00010720 Ry

     convergence has been achieved in  10 iterations

     Forces acting on atoms (cartesian axes, Ry/au):

     atom    1 type  1   force =     0.00000000    0.00000000    0.00000000
     atom    2 type  1   force =     0.00000000    0.00000000   -0.00000000
     The non-local contrib.  to forces
     atom    1 type  1   force =     0.00000000    0.00000000    0.00000000
     atom    2 type  1   force =     0.00000000    0.00000000    0.00000000
     The ionic contribution  to forces
     atom    1 type  1   force =    -0.00000000   -0.00000000   -0.00000000
     atom    2 type  1   force =     0.00000000    0.00000000    0.00000000
     The local contribution  to forces
     atom    1 type  1   force =     0.00000000    0.00000000    0.00000000
     atom    2 type  1   force =     0.00000000    0.00000000    0.00000000
     The core correction contribution to forces
     atom    1 type  1   force =     0.00000000   -0.00000000   -0.00000000
     atom    2 type  1   force =    -0.00000000   -0.00000000    0.00000000
     The Hubbard contrib.    to forces
     atom    1 type  1   force =     0.00000000    0.00000000    0.00000000
     atom    2 type  1   force =     0.00000000    0.00000000    0.00000000
     The SCF correction term to forces
     atom    1 type  1   force =     0.00000000    0.00000000    0.00000000
     atom    2 type  1   force =     0.00000000   -0.00000000    0.00000000

     Total force =     0.000000     Total SCF correction =     0.000000


     Computing stress (Cartesian axis) and pressure

          total   stress  (Ry/bohr**3)                   (kbar)     P=    0.01
   0.00000009  -0.00000000  -0.00000000          0.01     -0.00     -0.00
   0.00000000   0.00000009  -0.00000000          0.00      0.01     -0.00
  -0.00000000  -0.00000000   0.00000009         -0.00     -0.00      0.01

     kinetic stress (kbar)   2201.70     -0.00     -0.00
                               -0.00   2201.70      0.00
                               -0.00      0.00   2201.70

     local   stress (kbar)     39.91     -0.00     -0.00
                               -0.00     39.91     -0.00
                               -0.00     -0.00     39.91

     nonloc. stress (kbar)   1626.10      0.00      0.00
                                0.00   1626.10      0.00
                                0.00      0.00   1626.10

     hartree stress (kbar)    195.89      0.00      0.00
                                0.00    195.89      0.00
                                0.00      0.00    195.89

     exc-cor stress (kbar)   2906.64     -0.00     -0.00
                               -0.00   2906.64      0.00
                               -0.00      0.00   2906.64

     corecor stress (kbar)  -3926.69     -0.00     -0.00
                               -0.00  -3926.69      0.00
                               -0.00      0.00  -3926.69

     ewald   stress (kbar)  -3043.54      0.00      0.00
                                0.00  -3043.54      0.00
                                0.00      0.00  -3043.54

     hubbard stress (kbar)      0.00      0.00      0.00
                                0.00      0.00      0.00
                                0.00      0.00      0.00

     london  stress (kbar)      0.00      0.00      0.00
                                0.00      0.00      0.00
                                0.00      0.00      0.00

     DFT-D3  stress (kbar)      0.00      0.00      0.00
                                0.00      0.00      0.00
                                0.00      0.00      0.00

     XDM     stress (kbar)      0.00      0.00      0.00
                                0.00      0.00      0.00
                                0.00      0.00      0.00

     dft-nl  stress (kbar)      0.00      0.00      0.00
                                0.00      0.00      0.00
                                0.00      0.00      0.00

     TS-vdW  stress (kbar)      0.00      0.00      0.00
                                0.00      0.00      0.00
                                0.00      0.00      0.00



     Writing output data file Si.save/

     init_run     :      2.83s CPU      3.06s WALL (       2 calls)
     electrons    :     37.15s CPU     39.99s WALL (       4 calls)
     update_pot   :      2.12s CPU      2.19s WALL (       2 calls)
     forces       :      2.22s CPU      2.39s WALL (       4 calls)
     stress       :      5.76s CPU      6.25s WALL (       4 calls)

     Called by init_run:
     wfcinit      :      0.45s CPU      0.48s WALL (       2 calls)
     wfcinit:atom :      0.01s CPU      0.01s WALL (      94 calls)
     wfcinit:wfcr :      0.39s CPU      0.41s WALL (      94 calls)
     potinit      :      0.32s CPU      0.35s WALL (       2 calls)
     hinit0       :      1.95s CPU      2.06s WALL (       2 calls)

     Called by electrons:
     c_bands      :     28.98s CPU     29.83s WALL (      36 calls)
     sum_band     :      5.46s CPU      6.46s WALL (      36 calls)
     v_of_rho     :      1.01s CPU      1.07s WALL (      37 calls)
     v_h          :      0.06s CPU      0.06s WALL (      37 calls)
     v_xc         :      1.16s CPU      1.24s WALL (      45 calls)
     newd         :      1.69s CPU      2.72s WALL (      37 calls)
     mix_rho      :      0.10s CPU      0.11s WALL (      36 calls)

     Called by c_bands:
     init_us_2    :      1.07s CPU      1.10s WALL (    3854 calls)
     cegterg      :     25.39s CPU     26.16s WALL (    1692 calls)

     Called by sum_band:
     sum_band:bec :      0.02s CPU      0.02s WALL (    1692 calls)
     addusdens    :      1.41s CPU      2.29s WALL (      36 calls)

     Called by *egterg:
     h_psi        :     19.93s CPU     20.50s WALL (    5255 calls)
     s_psi        :      1.80s CPU      1.85s WALL (    5255 calls)
     g_psi        :      0.17s CPU      0.17s WALL (    3469 calls)
     cdiaghg      :      0.79s CPU      0.84s WALL (    4926 calls)
     cegterg:over :      1.17s CPU      1.20s WALL (    3469 calls)
     cegterg:upda :      0.73s CPU      0.76s WALL (    3469 calls)
     cegterg:last :      0.54s CPU      0.58s WALL (    1780 calls)

     Called by h_psi:
     h_psi:pot    :     19.85s CPU     20.42s WALL (    5255 calls)
     h_psi:calbec :      1.88s CPU      1.92s WALL (    5255 calls)
     vloc_psi     :     16.14s CPU     16.63s WALL (    5255 calls)
     add_vuspsi   :      1.81s CPU      1.84s WALL (    5255 calls)

     General routines
     calbec       :      2.74s CPU      2.81s WALL (    7887 calls)
     fft          :      0.72s CPU      0.75s WALL (     578 calls)
     ffts         :      0.02s CPU      0.02s WALL (      73 calls)
     fftw         :     14.61s CPU     15.05s WALL (   81434 calls)
     interpolate  :      0.08s CPU      0.08s WALL (      37 calls)

     Parallel routines

     PWSCF        :     50.91s CPU     54.85s WALL


   This run was terminated on:   6:39:21  15Mar2023            

=------------------------------------------------------------------------------=
   JOB DONE.
=------------------------------------------------------------------------------=
